  37  37   0   0
  0.2877838E+03  0.2200000E-08  0.2200000E-08  0.2200000E-08  0.1000000E-15
   1.0000000000000000E-004
  CAR 
 molecule                                
      1.49745125    -23.78859972  301     -4.80298978      1.00000000
    -23.789  0.0000E+00  0.0000E+00
    -23.704  0.0000E+00  0.0000E+00
    -23.620  0.0000E+00  0.0000E+00
    -23.536  0.0000E+00  0.0000E+00
    -23.451  0.0000E+00  0.0000E+00
    -23.367  0.0000E+00  0.0000E+00
    -23.283  0.0000E+00  0.0000E+00
    -23.199  0.0000E+00  0.0000E+00
    -23.114  0.0000E+00  0.0000E+00
    -23.030  0.0000E+00  0.0000E+00
    -22.946  0.0000E+00  0.0000E+00
    -22.861  0.0000E+00  0.0000E+00
    -22.777  0.0000E+00  0.0000E+00
    -22.693  0.3925E-15  0.3308E-16
    -22.609  0.2373E-01  0.2000E-02
    -22.524  0.0000E+00  0.2000E-02
    -22.440  0.0000E+00  0.2000E-02
    -22.356  0.0000E+00  0.2000E-02
    -22.271  0.1991E-01  0.3678E-02
    -22.187  0.0000E+00  0.4000E-02
    -22.103  0.0000E+00  0.4000E-02
    -22.019  0.2411E-03  0.4020E-02
    -21.934  0.2349E-01  0.6000E-02
    -21.850  0.5080E-09  0.6000E-02
    -21.766  0.2373E-01  0.8000E-02
    -21.681  0.2348E-01  0.9979E-02
    -21.597  0.0000E+00  0.1000E-01
    -21.513  0.0000E+00  0.1000E-01
    -21.429  0.0000E+00  0.1000E-01
    -21.344  0.0000E+00  0.1000E-01
    -21.260  0.0000E+00  0.1000E-01
    -21.176  0.0000E+00  0.1000E-01
    -21.091  0.0000E+00  0.1000E-01
    -21.007  0.0000E+00  0.1000E-01
    -20.923  0.0000E+00  0.1000E-01
    -20.839  0.0000E+00  0.1000E-01
    -20.754  0.0000E+00  0.1000E-01
    -20.670  0.0000E+00  0.1000E-01
    -20.586  0.0000E+00  0.1000E-01
    -20.501  0.0000E+00  0.1000E-01
    -20.417  0.0000E+00  0.1000E-01
    -20.333  0.0000E+00  0.1000E-01
    -20.249  0.0000E+00  0.1000E-01
    -20.164  0.0000E+00  0.1000E-01
    -20.080  0.0000E+00  0.1000E-01
    -19.996  0.0000E+00  0.1000E-01
    -19.911  0.0000E+00  0.1000E-01
    -19.827  0.0000E+00  0.1000E-01
    -19.743  0.0000E+00  0.1000E-01
    -19.659  0.0000E+00  0.1000E-01
    -19.574  0.0000E+00  0.1000E-01
    -19.490  0.0000E+00  0.1000E-01
    -19.406  0.0000E+00  0.1000E-01
    -19.321  0.0000E+00  0.1000E-01
    -19.237  0.8099E-04  0.1001E-01
    -19.153  0.2365E-01  0.1200E-01
    -19.069  0.2235E-07  0.1200E-01
    -18.984  0.2373E-01  0.1400E-01
    -18.900  0.1971E-09  0.1400E-01
    -18.816  0.2373E-01  0.1600E-01
    -18.731  0.2373E-01  0.1800E-01
    -18.647  0.0000E+00  0.1800E-01
    -18.563  0.0000E+00  0.1800E-01
    -18.479  0.0000E+00  0.1800E-01
    -18.394  0.0000E+00  0.1800E-01
    -18.310  0.0000E+00  0.1800E-01
    -18.226  0.0000E+00  0.1800E-01
    -18.141  0.1543E-02  0.1813E-01
    -18.057  0.2219E-01  0.2000E-01
    -17.973  0.2373E-01  0.2200E-01
    -17.889  0.0000E+00  0.2200E-01
    -17.804  0.0000E+00  0.2200E-01
    -17.720  0.0000E+00  0.2200E-01
    -17.636  0.0000E+00  0.2200E-01
    -17.551  0.1633E-01  0.2338E-01
    -17.467  0.0000E+00  0.2400E-01
    -17.383  0.0000E+00  0.2400E-01
    -17.299  0.4079E-02  0.2434E-01
    -17.214  0.1965E-01  0.2600E-01
    -17.130  0.0000E+00  0.2600E-01
    -17.046  0.3165E-03  0.2603E-01
    -16.961  0.2341E-01  0.2800E-01
    -16.877  0.0000E+00  0.2800E-01
    -16.793  0.1737E-04  0.2800E-01
    -16.709  0.2371E-01  0.3000E-01
    -16.624  0.0000E+00  0.3000E-01
    -16.540  0.0000E+00  0.3000E-01
    -16.456  0.0000E+00  0.3000E-01
    -16.371  0.0000E+00  0.3000E-01
    -16.287  0.0000E+00  0.3000E-01
    -16.203  0.0000E+00  0.3000E-01
    -16.118  0.0000E+00  0.3000E-01
    -16.034  0.0000E+00  0.3000E-01
    -15.950  0.0000E+00  0.3000E-01
    -15.866  0.0000E+00  0.3000E-01
    -15.781  0.0000E+00  0.3000E-01
    -15.697  0.0000E+00  0.3000E-01
    -15.613  0.0000E+00  0.3000E-01
    -15.528  0.0000E+00  0.3000E-01
    -15.444  0.0000E+00  0.3000E-01
    -15.360  0.0000E+00  0.3000E-01
    -15.276  0.0000E+00  0.3000E-01
    -15.191  0.0000E+00  0.3000E-01
    -15.107  0.0000E+00  0.3000E-01
    -15.023  0.0000E+00  0.3000E-01
    -14.938  0.0000E+00  0.3000E-01
    -14.854  0.4401E-04  0.3000E-01
    -14.770  0.2368E-01  0.3200E-01
    -14.686  0.0000E+00  0.3200E-01
    -14.601  0.0000E+00  0.3200E-01
    -14.517  0.1068E-02  0.3209E-01
    -14.433  0.2291E-01  0.3402E-01
    -14.348  0.2348E-01  0.3600E-01
    -14.264  0.0000E+00  0.3600E-01
    -14.180  0.2949E-04  0.3600E-01
    -14.096  0.2370E-01  0.3800E-01
    -14.011  0.0000E+00  0.3800E-01
    -13.927  0.9986E-14  0.3800E-01
    -13.843  0.2373E-01  0.4000E-01
    -13.758  0.2373E-01  0.4200E-01
    -13.674  0.0000E+00  0.4200E-01
    -13.590  0.0000E+00  0.4200E-01
    -13.506  0.0000E+00  0.4200E-01
    -13.421  0.0000E+00  0.4200E-01
    -13.337  0.1125E-01  0.4295E-01
    -13.253  0.0000E+00  0.4400E-01
    -13.168  0.2787E-05  0.4400E-01
    -13.084  0.2373E-01  0.4600E-01
    -13.000  0.9572E-11  0.4600E-01
    -12.916  0.2373E-01  0.4800E-01
    -12.831  0.2373E-01  0.5000E-01
    -12.747  0.0000E+00  0.5000E-01
    -12.663  0.1394E-03  0.5001E-01
    -12.578  0.2359E-01  0.5200E-01
    -12.494  0.0000E+00  0.5200E-01
    -12.410  0.0000E+00  0.5200E-01
    -12.326  0.0000E+00  0.5200E-01
    -12.241  0.0000E+00  0.5200E-01
    -12.157  0.0000E+00  0.5200E-01
    -12.073  0.0000E+00  0.5200E-01
    -11.988  0.0000E+00  0.5200E-01
    -11.904  0.0000E+00  0.5200E-01
    -11.820  0.0000E+00  0.5200E-01
    -11.736  0.0000E+00  0.5200E-01
    -11.651  0.5088E-03  0.5204E-01
    -11.567  0.2322E-01  0.5400E-01
    -11.483  0.5209E-02  0.5444E-01
    -11.398  0.1852E-01  0.5600E-01
    -11.314  0.1646E-09  0.5600E-01
    -11.230  0.2373E-01  0.5800E-01
    -11.146  0.2373E-01  0.6000E-01
    -11.061  0.0000E+00  0.6000E-01
    -10.977  0.0000E+00  0.6000E-01
    -10.893  0.0000E+00  0.6000E-01
    -10.808  0.0000E+00  0.6000E-01
    -10.724  0.0000E+00  0.6000E-01
    -10.640  0.0000E+00  0.6000E-01
    -10.556  0.0000E+00  0.6000E-01
    -10.471  0.3795E-02  0.6032E-01
    -10.387  0.1993E-01  0.6200E-01
    -10.303  0.2369E-01  0.6400E-01
    -10.218  0.0000E+00  0.6400E-01
    -10.134  0.1317E-17  0.6400E-01
    -10.050  0.2373E-01  0.6600E-01
     -9.966  0.7025E-02  0.6659E-01
     -9.881  0.1127E-07  0.6800E-01
     -9.797  0.2802E-01  0.7036E-01
     -9.713  0.4289E-01  0.7398E-01
     -9.628  0.1490E-01  0.7526E-01
     -9.544  0.2363E-01  0.7799E-01
     -9.460  0.2373E-01  0.8000E-01
     -9.376  0.2360E-01  0.8199E-01
     -9.291  0.0000E+00  0.8200E-01
     -9.207  0.4505E-04  0.8200E-01
     -9.123  0.4731E-01  0.8599E-01
     -9.038  0.1290E-06  0.8600E-01
     -8.954  0.2373E-01  0.8800E-01
     -8.870  0.2420E-01  0.9004E-01
     -8.786  0.2325E-01  0.9200E-01
     -8.701  0.0000E+00  0.9200E-01
     -8.617  0.0000E+00  0.9200E-01
     -8.533  0.1334E-14  0.9200E-01
     -8.448  0.2373E-01  0.9400E-01
     -8.364  0.1945E-01  0.9564E-01
     -8.280  0.0000E+00  0.9600E-01
     -8.196  0.2221E-01  0.9787E-01
     -8.111  0.2373E-01  0.1000E+00
     -8.027  0.2373E-01  0.1020E+00
     -7.943  0.0000E+00  0.1020E+00
     -7.858  0.0000E+00  0.1020E+00
     -7.774  0.0000E+00  0.1020E+00
     -7.690  0.0000E+00  0.1020E+00
     -7.606  0.0000E+00  0.1020E+00
     -7.521  0.0000E+00  0.1020E+00
     -7.437  0.0000E+00  0.1020E+00
     -7.353  0.0000E+00  0.1020E+00
     -7.268  0.0000E+00  0.1020E+00
     -7.184  0.0000E+00  0.1020E+00
     -7.100  0.0000E+00  0.1020E+00
     -7.016  0.1620E-04  0.1020E+00
     -6.931  0.2371E-01  0.1040E+00
     -6.847  0.2371E-01  0.1060E+00
     -6.763  0.0000E+00  0.1060E+00
     -6.678  0.0000E+00  0.1060E+00
     -6.594  0.3739E-02  0.1063E+00
     -6.510  0.1999E-01  0.1080E+00
     -6.426  0.2756E-02  0.1082E+00
     -6.341  0.2097E-01  0.1100E+00
     -6.257  0.1138E-03  0.1100E+00
     -6.173  0.2361E-01  0.1120E+00
     -6.088  0.2366E-01  0.1140E+00
     -6.004  0.0000E+00  0.1140E+00
     -5.920  0.2457E-04  0.1140E+00
     -5.836  0.2370E-01  0.1160E+00
     -5.751  0.0000E+00  0.1160E+00
     -5.667  0.0000E+00  0.1160E+00
     -5.583  0.0000E+00  0.1160E+00
     -5.498  0.2372E-01  0.1180E+00
     -5.414  0.0000E+00  0.1180E+00
     -5.330  0.0000E+00  0.1180E+00
     -5.245  0.0000E+00  0.1180E+00
     -5.161  0.0000E+00  0.1180E+00
     -5.077  0.8167E-16  0.1180E+00
     -4.993  0.2373E-01  0.1200E+00
     -4.908  0.8682E-02  0.1207E+00
     -4.824  0.0000E+00  0.1220E+00
     -4.740  0.0000E+00  0.1220E+00
     -4.655  0.0000E+00  0.1220E+00
     -4.571  0.0000E+00  0.1220E+00
     -4.487  0.0000E+00  0.1220E+00
     -4.403  0.0000E+00  0.1220E+00
     -4.318  0.0000E+00  0.1220E+00
     -4.234  0.0000E+00  0.1220E+00
     -4.150  0.0000E+00  0.1220E+00
     -4.065  0.0000E+00  0.1220E+00
     -3.981  0.0000E+00  0.1220E+00
     -3.897  0.0000E+00  0.1220E+00
     -3.813  0.0000E+00  0.1220E+00
     -3.728  0.0000E+00  0.1220E+00
     -3.644  0.0000E+00  0.1220E+00
     -3.560  0.0000E+00  0.1220E+00
     -3.475  0.0000E+00  0.1220E+00
     -3.391  0.0000E+00  0.1220E+00
     -3.307  0.0000E+00  0.1220E+00
     -3.223  0.0000E+00  0.1220E+00
     -3.138  0.0000E+00  0.1220E+00
     -3.054  0.0000E+00  0.1220E+00
     -2.970  0.0000E+00  0.1220E+00
     -2.885  0.0000E+00  0.1220E+00
     -2.801  0.0000E+00  0.1220E+00
     -2.717  0.0000E+00  0.1220E+00
     -2.633  0.0000E+00  0.1220E+00
     -2.548  0.0000E+00  0.1220E+00
     -2.464  0.0000E+00  0.1220E+00
     -2.380  0.0000E+00  0.1220E+00
     -2.295  0.2228E-01  0.1239E+00
     -2.211  0.0000E+00  0.1240E+00
     -2.127  0.0000E+00  0.1240E+00
     -2.043  0.0000E+00  0.1240E+00
     -1.958  0.1479E-01  0.1252E+00
     -1.874  0.0000E+00  0.1260E+00
     -1.790  0.0000E+00  0.1260E+00
     -1.705  0.0000E+00  0.1260E+00
     -1.621  0.0000E+00  0.1260E+00
     -1.537  0.0000E+00  0.1260E+00
     -1.453  0.0000E+00  0.1260E+00
     -1.368  0.6189E-12  0.1260E+00
     -1.284  0.2373E-01  0.1280E+00
     -1.200  0.0000E+00  0.1280E+00
     -1.115  0.0000E+00  0.1280E+00
     -1.031  0.1839E-01  0.1296E+00
     -0.947  0.0000E+00  0.1300E+00
     -0.863  0.6369E-02  0.1305E+00
     -0.778  0.1736E-01  0.1320E+00
     -0.694  0.0000E+00  0.1320E+00
     -0.610  0.0000E+00  0.1320E+00
     -0.525  0.9913E-02  0.1328E+00
     -0.441  0.2320E-01  0.1360E+00
     -0.357  0.2373E-01  0.1380E+00
     -0.273  0.2356E-01  0.1400E+00
     -0.188  0.2373E-01  0.1420E+00
     -0.104  0.2341E-01  0.1440E+00
     -0.020  0.2716E-01  0.1463E+00
      0.065  0.2372E-01  0.1500E+00
      0.149  0.1202E-04  0.1500E+00
      0.233  0.4659E-01  0.1539E+00
      0.317  0.5022E-02  0.1544E+00
      0.402  0.6616E-01  0.1600E+00
      0.486  0.0000E+00  0.1600E+00
      0.570  0.0000E+00  0.1600E+00
      0.655  0.0000E+00  0.1600E+00
      0.739  0.0000E+00  0.1600E+00
      0.823  0.0000E+00  0.1600E+00
      0.907  0.0000E+00  0.1600E+00
      0.992  0.0000E+00  0.1600E+00
      1.076  0.0000E+00  0.1600E+00
      1.160  0.0000E+00  0.1600E+00
      1.245  0.0000E+00  0.1600E+00
      1.329  0.0000E+00  0.1600E+00
      1.413  0.0000E+00  0.1600E+00
      1.497  0.0000E+00  0.1600E+00
