   37   37 1000    1
  0.2877838E+03  0.2200000E-08  0.2200000E-08  0.2200000E-08  0.1000000E-15
   1.0000000000000000E-004
  CAR 
 molecule                                
    122      1     80
 
  0.1262379E-14  0.1262379E-14  0.1262379E-14  0.1000000E+01
      1        -22.639234   1.000000
      2        -22.278438   1.000000
      3        -22.002169   1.000000
      4        -21.811261   1.000000
      5        -21.697737   1.000000
      6        -19.217982   1.000000
      7        -19.034839   1.000000
      8        -18.860054   1.000000
      9        -18.775539   1.000000
     10        -18.130677   1.000000
     11        -18.003705   1.000000
     12        -17.554841   1.000000
     13        -17.291820   1.000000
     14        -17.029982   1.000000
     15        -16.770295   1.000000
     16        -14.833676   1.000000
     17        -14.505061   1.000000
     18        -14.416403   1.000000
     19        -14.158510   1.000000
     20        -13.876452   1.000000
     21        -13.803424   1.000000
     22        -13.336576   1.000000
     23        -13.142449   1.000000
     24        -12.956443   1.000000
     25        -12.873876   1.000000
     26        -12.644921   1.000000
     27        -11.636978   1.000000
     28        -11.477250   1.000000
     29        -11.274020   1.000000
     30        -11.176254   1.000000
     31        -10.464246   1.000000
     32        -10.323477   1.000000
     33        -10.075613   1.000000
     34         -9.961770   1.000000
     35         -9.846611   1.000000
     36         -9.790539   1.000000
     37         -9.728809   1.000000
     38         -9.630717   1.000000
     39         -9.562751   1.000000
     40         -9.516890   1.000000
     41         -9.393504   1.000000
     42         -9.186510   1.000000
     43         -9.141367   1.000000
     44         -9.007297   1.000000
     45         -8.927924   1.000000
     46         -8.855327   1.000000
     47         -8.480177   1.000000
     48         -8.370573   1.000000
     49         -8.206290   1.000000
     50         -8.145500   1.000000
     51         -8.083864   1.000000
     52         -6.992879   1.000000
     53         -6.869597   1.000000
     54         -6.586982   1.000000
     55         -6.417065   1.000000
     56         -6.238622   1.000000
     57         -6.107936   1.000000
     58         -5.898012   1.000000
     59         -5.522830   1.000000
     60         -5.021870   1.000000
     61         -4.905925   1.000000
     62         -2.306385   0.000000
     63         -1.960534   0.000000
     64         -1.321882   0.000000
     65         -1.036495   0.000000
     66         -0.858213   0.000000
     67         -0.523559   0.000000
     68         -0.511228   0.000000
     69         -0.384784   0.000000
     70         -0.289954   0.000000
     71         -0.220607   0.000000
     72         -0.119665   0.000000
     73         -0.025244   0.000000
     74         -0.017204   0.000000
     75          0.041208   0.000000
     76          0.172103   0.000000
     77          0.220438   0.000000
     78          0.324041   0.000000
     79          0.330109   0.000000
     80          0.348085   0.000000
