 running   16 mpi-ranks, with    1 threads/rank, on    4 nodes
 distrk:  each k-point on   16 cores,    1 groups
 distr:  one band on    1 cores,   16 groups
 OpenACC runtime initialized ...   16 GPUs detected
 vasp.6.4.3 19Mar24 (build Jun  5 2025 09:57:42) gamma-only                      
 POSCAR found type information on POSCAR C S H 
 POSCAR found :  3 types and      37 ions
 Reading from existing POTCAR
 scaLAPACK will be used selectively (only on CPU)
 Reading from existing POTCAR
 -----------------------------------------------------------------------------
|                                                                             |
|               ----> ADVICE to this user running VASP <----                  |
|                                                                             |
|     You have a (more or less) 'large supercell' and for larger cells it     |
|     might be more efficient to use real-space projection operators.         |
|     Therefore, try LREAL= Auto in the INCAR file.                           |
|     Mind: For very accurate calculation, you might also keep the            |
|     reciprocal projection scheme (i.e. LREAL=.FALSE.).                      |
|                                                                             |
 -----------------------------------------------------------------------------

 LDA part: xc-table for (Slater+CA(PZ)), standard interpolation
 POSCAR, INCAR and KPOINTS ok, starting setup
 FFT: planning ... GRIDC
 FFT: planning ... GRID_SOFT
 FFT: planning ... GRID
 WAVECAR not read
 WARNING: chargedensity file is incomplete
 entering main loop
       N       E                     dE             d eps       ncg     rms          rms(c)
DAV:   1     0.117546719782E+04    0.11755E+04   -0.30880E+04   192   0.895E+02
DAV:   2     0.334180187414E+03   -0.84129E+03   -0.78026E+03   256   0.146E+02
DAV:   3    -0.206785165539E+03   -0.54097E+03   -0.53817E+03   208   0.117E+02
DAV:   4    -0.288819936364E+03   -0.82035E+02   -0.81818E+02   224   0.685E+01
DAV:   5    -0.290805272251E+03   -0.19853E+01   -0.19695E+01   208   0.137E+01    0.423E+01
RMM:   6    -0.263920749255E+03    0.26885E+02   -0.51299E+01   160   0.172E+01    0.228E+01
RMM:   7    -0.260872486804E+03    0.30483E+01   -0.30414E+01   160   0.141E+01    0.591E+00
RMM:   8    -0.260424450670E+03    0.44804E+00   -0.22190E+00   162   0.496E+00    0.250E+00
RMM:   9    -0.260403196738E+03    0.21254E-01   -0.10699E+00   171   0.264E+00    0.110E+00
RMM:  10    -0.260414144773E+03   -0.10948E-01   -0.28222E-01   178   0.127E+00    0.909E-01
RMM:  11    -0.260426137047E+03   -0.11992E-01   -0.50463E-02   183   0.621E-01    0.511E-01
RMM:  12    -0.260428331752E+03   -0.21947E-02   -0.13543E-02   163   0.316E-01    0.249E-01
RMM:  13    -0.260440492530E+03   -0.12161E-01   -0.96070E-03   160   0.237E-01    0.323E-01
RMM:  14    -0.260442884278E+03   -0.23917E-02   -0.34684E-03   194   0.136E-01    0.141E-01
RMM:  15    -0.260453246913E+03   -0.10363E-01   -0.26613E-03   160   0.115E-01    0.103E-01
RMM:  16    -0.260459461465E+03   -0.62146E-02   -0.30802E-03   167   0.105E-01    0.130E-01
RMM:  17    -0.260460587900E+03   -0.11264E-02   -0.52873E-04   162   0.567E-02    0.478E-02
RMM:  18    -0.260465633278E+03   -0.50454E-02   -0.21463E-03   182   0.998E-02    0.102E-01
RMM:  19    -0.260466338082E+03   -0.70480E-03   -0.15713E-04   161   0.354E-02    0.689E-02
RMM:  20    -0.260466888265E+03   -0.55018E-03   -0.24411E-04   161   0.335E-02    0.279E-02
RMM:  21    -0.260467632824E+03   -0.74456E-03   -0.79075E-05   167   0.193E-02    0.172E-02
RMM:  22    -0.260467927010E+03   -0.29419E-03   -0.76186E-05   171   0.176E-02    0.992E-03
RMM:  23    -0.260468106431E+03   -0.17942E-03   -0.96882E-06   160   0.811E-03    0.372E-03
RMM:  24    -0.260468248721E+03   -0.14229E-03   -0.95028E-06   162   0.583E-03    0.190E-03
RMM:  25    -0.260468280716E+03   -0.31995E-04   -0.33610E-06   173   0.384E-03    0.279E-03
RMM:  26    -0.260468313123E+03   -0.32407E-04   -0.10044E-06   160   0.220E-03    0.135E-03
RMM:  27    -0.260468324980E+03   -0.11857E-04   -0.64785E-07   164   0.139E-03    0.133E-03
RMM:  28    -0.260468331592E+03   -0.66126E-05   -0.38897E-07   160   0.141E-03    0.930E-04
RMM:  29    -0.260468332910E+03   -0.13173E-05   -0.66677E-08   137   0.664E-04    0.684E-04
RMM:  30    -0.260468334167E+03   -0.12572E-05   -0.22027E-08   105   0.350E-04    0.448E-04
RMM:  31    -0.260468334827E+03   -0.66067E-06   -0.12906E-08   100   0.267E-04    0.219E-04
RMM:  32    -0.260468335455E+03   -0.62802E-06   -0.13816E-08   103   0.255E-04    0.963E-05
RMM:  33    -0.260468335638E+03   -0.18224E-06   -0.43313E-09    97   0.162E-04    0.162E-04
RMM:  34    -0.260468335762E+03   -0.12417E-06   -0.16948E-09    71   0.979E-05    0.807E-05
RMM:  35    -0.260468335822E+03   -0.60616E-07   -0.13005E-09    81   0.962E-05    0.710E-05
RMM:  36    -0.260468335844E+03   -0.21424E-07   -0.19130E-10    44   0.618E-05    0.696E-05
RMM:  37    -0.260468335881E+03   -0.36707E-07   -0.25283E-10    48   0.665E-05    0.698E-05
RMM:  38    -0.260468335881E+03   -0.87311E-09    0.00000E+00    38   0.602E-05
   1 F= -.26046834E+03 E0= -.26046834E+03  d E =-.260468E+03
 curvature:   0.00 expect dE= 0.000E+00 dE for cont linesearch  0.000E+00
 trial: gam= 0.00000 g(F)=  0.774E+00 g(S)=  0.000E+00 ort = 0.000E+00 (trialstep = 0.100E+01)
 search vector abs. value=  0.774E+00
 bond charge predicted
       N       E                     dE             d eps       ncg     rms          rms(c)
DAV:   1    -0.260912172819E+03   -0.44384E+00   -0.22005E+01   192   0.177E+01    0.220E+00
RMM:   2    -0.260925251914E+03   -0.13079E-01   -0.53911E-01   161   0.272E+00    0.885E-01
RMM:   3    -0.260917175162E+03    0.80768E-02   -0.11744E-01   166   0.129E+00    0.385E-01
RMM:   4    -0.260917468678E+03   -0.29352E-03   -0.32399E-02   176   0.656E-01    0.260E-01
RMM:   5    -0.260917919905E+03   -0.45123E-03   -0.52241E-03   191   0.252E-01    0.978E-02
RMM:   6    -0.260917997216E+03   -0.77311E-04   -0.97443E-04   177   0.105E-01    0.223E-02
RMM:   7    -0.260918031713E+03   -0.34498E-04   -0.25395E-04   192   0.450E-02    0.158E-02
RMM:   8    -0.260918043847E+03   -0.12134E-04   -0.29968E-05   184   0.155E-02    0.718E-03
RMM:   9    -0.260918061792E+03   -0.17945E-04   -0.71001E-06   171   0.714E-03    0.214E-03
RMM:  10    -0.260918068179E+03   -0.63878E-05   -0.14686E-06   184   0.318E-03    0.174E-03
RMM:  11    -0.260918076323E+03   -0.81438E-05   -0.49067E-07   166   0.178E-03    0.735E-04
RMM:  12    -0.260918082933E+03   -0.66094E-05   -0.32467E-07   162   0.117E-03    0.525E-04
RMM:  13    -0.260918092776E+03   -0.98430E-05   -0.66175E-07   152   0.133E-03    0.449E-04
RMM:  14    -0.260918095435E+03   -0.26590E-05   -0.19636E-07   148   0.717E-04    0.295E-04
RMM:  15    -0.260918098243E+03   -0.28087E-05   -0.10999E-07   141   0.543E-04    0.134E-04
RMM:  16    -0.260918099246E+03   -0.10027E-05   -0.34882E-08   119   0.321E-04    0.119E-04
RMM:  17    -0.260918100392E+03   -0.11455E-05   -0.26131E-08   116   0.268E-04    0.841E-05
RMM:  18    -0.260918100790E+03   -0.39846E-06   -0.10282E-08    88   0.178E-04    0.818E-05
RMM:  19    -0.260918101138E+03   -0.34775E-06   -0.91216E-09    91   0.155E-04    0.740E-05
RMM:  20    -0.260918101209E+03   -0.71603E-07   -0.22203E-09    70   0.101E-04    0.723E-05
RMM:  21    -0.260918101291E+03   -0.81738E-07   -0.10992E-09    58   0.842E-05    0.718E-05
RMM:  22    -0.260918101318E+03   -0.26947E-07   -0.41373E-10    50   0.734E-05    0.716E-05
RMM:  23    -0.260918101346E+03   -0.28158E-07   -0.32923E-10    50   0.730E-05    0.715E-05
RMM:  24    -0.260918101355E+03   -0.84947E-08   -0.21245E-11    39   0.680E-05
   2 F= -.26091810E+03 E0= -.26091810E+03  d E =-.449765E+00
 trial-energy change:   -0.449765  1 .order   -0.453023   -0.773803   -0.132243
 step:   1.2140(harm=  1.2061)  dis= 0.02395  next Energy=  -260.932222 (dE=-0.464E+00)
 bond charge predicted
       N       E                     dE             d eps       ncg     rms          rms(c)
DAV:   1    -0.260931909358E+03   -0.13808E-01   -0.10081E+00   192   0.378E+00    0.420E-01
RMM:   2    -0.260932462409E+03   -0.55305E-03   -0.24374E-02   161   0.578E-01    0.184E-01
RMM:   3    -0.260932111549E+03    0.35086E-03   -0.55691E-03   168   0.275E-01    0.721E-02
RMM:   4    -0.260932136263E+03   -0.24714E-04   -0.14059E-03   173   0.138E-01    0.393E-02
RMM:   5    -0.260932162312E+03   -0.26049E-04   -0.26207E-04   196   0.561E-02    0.217E-02
RMM:   6    -0.260932168380E+03   -0.60678E-05   -0.40166E-05   190   0.205E-02    0.469E-03
RMM:   7    -0.260932169863E+03   -0.14831E-05   -0.68832E-06   183   0.785E-03    0.185E-03
RMM:   8    -0.260932170925E+03   -0.10615E-05   -0.12291E-06   202   0.300E-03    0.110E-03
RMM:   9    -0.260932172042E+03   -0.11177E-05   -0.15176E-07   163   0.111E-03    0.486E-04
RMM:  10    -0.260932172572E+03   -0.52983E-06   -0.37305E-08   118   0.543E-04    0.239E-04
RMM:  11    -0.260932173463E+03   -0.89102E-06   -0.34446E-08   117   0.394E-04    0.159E-04
RMM:  12    -0.260932173741E+03   -0.27766E-06   -0.11618E-08   101   0.231E-04    0.117E-04
RMM:  13    -0.260932174523E+03   -0.78172E-06   -0.37267E-08   119   0.309E-04    0.104E-04
RMM:  14    -0.260932174716E+03   -0.19330E-06   -0.89473E-09    90   0.173E-04    0.799E-05
RMM:  15    -0.260932174911E+03   -0.19492E-06   -0.70036E-09    82   0.148E-04    0.741E-05
RMM:  16    -0.260932174987E+03   -0.76041E-07   -0.29519E-09    68   0.109E-04    0.723E-05
RMM:  17    -0.260932175075E+03   -0.87719E-07   -0.24647E-09    71   0.102E-04    0.720E-05
RMM:  18    -0.260932175101E+03   -0.26437E-07   -0.10283E-09    58   0.808E-05    0.717E-05
RMM:  19    -0.260932175123E+03   -0.21868E-07   -0.52514E-10    51   0.725E-05    0.716E-05
RMM:  20    -0.260932175129E+03   -0.61918E-08   -0.39631E-11    39   0.651E-05
   3 F= -.26093218E+03 E0= -.26093218E+03  d E =-.463839E+00
 curvature:  -0.60 expect dE=-0.313E-01 dE for cont linesearch -0.210E-06
 trial: gam= 0.06777 g(F)=  0.519E-01 g(S)=  0.000E+00 ort =-0.520E-03 (trialstep = 0.104E+01)
 search vector abs. value=  0.554E-01
 bond charge predicted
       N       E                     dE             d eps       ncg     rms          rms(c)
DAV:   1    -0.260968517584E+03   -0.36342E-01   -0.11555E+00   192   0.380E+00    0.653E-01
RMM:   2    -0.260970419551E+03   -0.19020E-02   -0.34107E-02   160   0.694E-01    0.243E-01
RMM:   3    -0.260970327051E+03    0.92500E-04   -0.68762E-03   162   0.316E-01    0.122E-01
RMM:   4    -0.260970425398E+03   -0.98347E-04   -0.18398E-03   172   0.155E-01    0.131E-01
RMM:   5    -0.260970471464E+03   -0.46066E-04   -0.42818E-04   200   0.658E-02    0.174E-01
RMM:   6    -0.260970464327E+03    0.71373E-05   -0.94162E-05   160   0.306E-02    0.540E-02
RMM:   7    -0.260970450721E+03    0.13606E-04   -0.25904E-05   161   0.166E-02    0.316E-02
RMM:   8    -0.260970448797E+03    0.19236E-05   -0.11600E-05   178   0.101E-02    0.257E-02
RMM:   9    -0.260970448335E+03    0.46270E-06   -0.27380E-06   215   0.455E-03    0.253E-02
RMM:  10    -0.260970448333E+03    0.18117E-08   -0.26424E-06   160   0.383E-03    0.184E-02
RMM:  11    -0.260970450198E+03   -0.18653E-05   -0.55056E-06   162   0.534E-03    0.887E-03
RMM:  12    -0.260970450993E+03   -0.79524E-06   -0.88503E-07   176   0.262E-03    0.657E-03
RMM:  13    -0.260970451692E+03   -0.69833E-06   -0.13811E-07   166   0.107E-03    0.604E-03
RMM:  14    -0.260970453499E+03   -0.18070E-05   -0.15136E-06   208   0.262E-03    0.749E-04
RMM:  15    -0.260970454033E+03   -0.53414E-06   -0.14253E-07   170   0.968E-04    0.111E-03
RMM:  16    -0.260970454825E+03   -0.79213E-06   -0.23214E-08   107   0.439E-04    0.753E-04
RMM:  17    -0.260970455126E+03   -0.30056E-06   -0.10311E-08   100   0.278E-04    0.513E-04
RMM:  18    -0.260970456071E+03   -0.94590E-06   -0.54643E-08   135   0.449E-04    0.266E-04
RMM:  19    -0.260970456138E+03   -0.66095E-07   -0.45644E-09    99   0.182E-04    0.113E-04
RMM:  20    -0.260970456375E+03   -0.23765E-06   -0.61320E-09    93   0.155E-04    0.152E-04
RMM:  21    -0.260970456447E+03   -0.71861E-07   -0.30569E-09    73   0.111E-04    0.932E-05
RMM:  22    -0.260970456512E+03   -0.65185E-07   -0.22989E-09    90   0.110E-04    0.838E-05
RMM:  23    -0.260970456553E+03   -0.41182E-07   -0.83613E-10    50   0.719E-05    0.729E-05
RMM:  24    -0.260970456582E+03   -0.29064E-07   -0.74053E-10    56   0.732E-05    0.723E-05
RMM:  25    -0.260970456602E+03   -0.19405E-07   -0.38295E-10    50   0.706E-05    0.718E-05
RMM:  26    -0.260970456608E+03   -0.63483E-08   -0.74092E-11    41   0.659E-05
   4 F= -.26097046E+03 E0= -.26097046E+03  d E =-.382815E-01
 trial-energy change:   -0.038281  1 .order   -0.038283   -0.054110   -0.022456
 step:   1.7826(harm=  1.7826)  dis= 0.01058  next Energy=  -260.978424 (dE=-0.462E-01)
 bond charge predicted
       N       E                     dE             d eps       ncg     rms          rms(c)
DAV:   1    -0.260977458475E+03   -0.70019E-02   -0.58213E-01   192   0.270E+00    0.461E-01
RMM:   2    -0.260978412908E+03   -0.95443E-03   -0.17224E-02   160   0.494E-01    0.173E-01
RMM:   3    -0.260978360516E+03    0.52392E-04   -0.34949E-03   162   0.225E-01    0.898E-02
RMM:   4    -0.260978413550E+03   -0.53034E-04   -0.92312E-04   172   0.110E-01    0.979E-02
RMM:   5    -0.260978437606E+03   -0.24056E-04   -0.22574E-04   200   0.473E-02    0.137E-01
RMM:   6    -0.260978430733E+03    0.68728E-05   -0.51904E-05   160   0.228E-02    0.324E-02
RMM:   7    -0.260978425849E+03    0.48841E-05   -0.14813E-05   161   0.124E-02    0.188E-02
RMM:   8    -0.260978425757E+03    0.92183E-07   -0.50310E-06   193   0.679E-03    0.169E-02
RMM:   9    -0.260978425168E+03    0.58917E-06   -0.14180E-06   175   0.322E-03    0.154E-02
RMM:  10    -0.260978425859E+03   -0.69123E-06   -0.69924E-07   160   0.230E-03    0.123E-02
RMM:  11    -0.260978428206E+03   -0.23473E-05   -0.27635E-06   174   0.388E-03    0.102E-02
RMM:  12    -0.260978428294E+03   -0.87428E-07   -0.33311E-07   180   0.174E-03    0.978E-03
RMM:  13    -0.260978428530E+03   -0.23653E-06   -0.17994E-07   172   0.107E-03    0.104E-02
RMM:  14    -0.260978428739E+03   -0.20899E-06   -0.51869E-07   185   0.161E-03    0.820E-03
RMM:  15    -0.260978429030E+03   -0.29035E-06   -0.12652E-06   220   0.251E-03    0.443E-03
RMM:  16    -0.260978429203E+03   -0.17301E-06   -0.53684E-08   128   0.696E-04    0.366E-03
RMM:  17    -0.260978429579E+03   -0.37680E-06   -0.28651E-07   190   0.121E-03    0.132E-03
RMM:  18    -0.260978429951E+03   -0.37205E-06   -0.11361E-07   168   0.842E-04    0.533E-04
RMM:  19    -0.260978430331E+03   -0.37976E-06   -0.12601E-07   165   0.894E-04    0.119E-03
RMM:  20    -0.260978430509E+03   -0.17780E-06   -0.15928E-08   100   0.431E-04    0.997E-04
RMM:  21    -0.260978430712E+03   -0.20285E-06   -0.13579E-08   102   0.304E-04    0.522E-04
RMM:  22    -0.260978430804E+03   -0.92579E-07   -0.13456E-08    99   0.297E-04    0.194E-04
RMM:  23    -0.260978430893E+03   -0.88585E-07   -0.70870E-09    99   0.228E-04    0.988E-05
RMM:  24    -0.260978430958E+03   -0.65007E-07   -0.28747E-09    96   0.145E-04    0.862E-05
RMM:  25    -0.260978431027E+03   -0.68871E-07   -0.16346E-09    68   0.927E-05    0.915E-05
RMM:  26    -0.260978431062E+03   -0.34895E-07   -0.13518E-09    68   0.906E-05    0.759E-05
RMM:  27    -0.260978431077E+03   -0.15243E-07   -0.34396E-10    44   0.696E-05    0.745E-05
RMM:  28    -0.260978431094E+03   -0.17251E-07   -0.50742E-10    51   0.735E-05    0.753E-05
RMM:  29    -0.260978431096E+03   -0.19754E-08    0.00000E+00    38   0.663E-05
   5 F= -.26097843E+03 E0= -.26097843E+03  d E =-.462560E-01
 curvature:  -0.95 expect dE=-0.175E-01 dE for cont linesearch -0.286E-07
 trial: gam= 0.34024 g(F)=  0.184E-01 g(S)=  0.000E+00 ort = 0.408E-04 (trialstep = 0.119E+01)
 search vector abs. value=  0.248E-01
 bond charge predicted
       N       E                     dE             d eps       ncg     rms          rms(c)
DAV:   1    -0.260995104034E+03   -0.16673E-01   -0.44043E-01   192   0.240E+00    0.327E-01
RMM:   2    -0.260996059432E+03   -0.95540E-03   -0.14371E-02   160   0.448E-01    0.119E-01
RMM:   3    -0.260996212445E+03   -0.15301E-03   -0.30916E-03   165   0.200E-01    0.787E-02
RMM:   4    -0.260996258843E+03   -0.46398E-04   -0.75664E-04   188   0.910E-02    0.771E-02
RMM:   5    -0.260996247694E+03    0.11149E-04   -0.96016E-05   160   0.340E-02    0.285E-02
RMM:   6    -0.260996255965E+03   -0.82710E-05   -0.76419E-05   160   0.264E-02    0.264E-02
RMM:   7    -0.260996249503E+03    0.64621E-05   -0.16376E-05   162   0.136E-02    0.633E-03
RMM:   8    -0.260996250157E+03   -0.65424E-06   -0.12254E-05   174   0.939E-03    0.346E-03
RMM:   9    -0.260996250636E+03   -0.47877E-06   -0.14134E-06   160   0.422E-03    0.322E-03
RMM:  10    -0.260996251859E+03   -0.12226E-05   -0.81016E-07   173   0.254E-03    0.140E-03
RMM:  11    -0.260996251983E+03   -0.12480E-06   -0.50740E-07   164   0.180E-03    0.934E-04
RMM:  12    -0.260996252183E+03   -0.19973E-06   -0.11574E-07   162   0.995E-04    0.663E-04
RMM:  13    -0.260996252517E+03   -0.33364E-06   -0.14285E-08   104   0.362E-04    0.492E-04
RMM:  14    -0.260996253364E+03   -0.84689E-06   -0.58556E-08   134   0.493E-04    0.255E-04
RMM:  15    -0.260996253612E+03   -0.24868E-06   -0.11705E-08   102   0.265E-04    0.207E-04
RMM:  16    -0.260996253893E+03   -0.28049E-06   -0.93677E-09    99   0.225E-04    0.273E-04
RMM:  17    -0.260996254166E+03   -0.27315E-06   -0.11304E-08   101   0.205E-04    0.179E-04
RMM:  18    -0.260996254344E+03   -0.17801E-06   -0.67200E-09    92   0.155E-04    0.975E-05
RMM:  19    -0.260996254418E+03   -0.74437E-07   -0.33019E-09    68   0.109E-04    0.891E-05
RMM:  20    -0.260996254490E+03   -0.71625E-07   -0.24311E-09    74   0.105E-04    0.729E-05
RMM:  21    -0.260996254516E+03   -0.25586E-07   -0.12767E-09    70   0.903E-05    0.730E-05
RMM:  22    -0.260996254540E+03   -0.24465E-07   -0.39837E-10    45   0.700E-05    0.717E-05
RMM:  23    -0.260996254559E+03   -0.18586E-07   -0.42085E-10    47   0.686E-05    0.709E-05
RMM:  24    -0.260996254565E+03   -0.61264E-08   -0.11637E-10    41   0.639E-05
   6 F= -.26099625E+03 E0= -.26099625E+03  d E =-.178235E-01
 trial-energy change:   -0.017823  1 .order   -0.017819   -0.021913   -0.013725
 step:   3.1867(harm=  3.1867)  dis= 0.01126  next Energy=  -261.007753 (dE=-0.293E-01)
 bond charge predicted
       N       E                     dE             d eps       ncg     rms          rms(c)
DAV:   1    -0.261004448741E+03   -0.81942E-02   -0.12383E+00   192   0.402E+00    0.557E-01
RMM:   2    -0.261007177723E+03   -0.27290E-02   -0.40574E-02   160   0.753E-01    0.200E-01
RMM:   3    -0.261007613762E+03   -0.43604E-03   -0.88766E-03   166   0.336E-01    0.130E-01
RMM:   4    -0.261007720201E+03   -0.10644E-03   -0.20225E-03   187   0.150E-01    0.124E-01
RMM:   5    -0.261007695099E+03    0.25102E-04   -0.19523E-04   170   0.520E-02    0.769E-02
RMM:   6    -0.261007708055E+03   -0.12955E-04   -0.27480E-04   160   0.445E-02    0.410E-02
RMM:   7    -0.261007694962E+03    0.13093E-04   -0.32629E-05   162   0.206E-02    0.145E-02
RMM:   8    -0.261007693788E+03    0.11738E-05   -0.32491E-05   162   0.149E-02    0.633E-03
RMM:   9    -0.261007694929E+03   -0.11413E-05   -0.39174E-06   161   0.709E-03    0.482E-03
RMM:  10    -0.261007697511E+03   -0.25824E-05   -0.22801E-06   183   0.409E-03    0.136E-03
RMM:  11    -0.261007697996E+03   -0.48447E-06   -0.89825E-07   166   0.249E-03    0.155E-03
RMM:  12    -0.261007699412E+03   -0.14160E-05   -0.22675E-07   174   0.141E-03    0.656E-04
RMM:  13    -0.261007700278E+03   -0.86625E-06   -0.60870E-08   134   0.665E-04    0.316E-04
RMM:  14    -0.261007701495E+03   -0.12166E-05   -0.49922E-08   128   0.475E-04    0.181E-04
RMM:  15    -0.261007702319E+03   -0.82476E-06   -0.33281E-08   115   0.341E-04    0.132E-04
RMM:  16    -0.261007703089E+03   -0.76973E-06   -0.26206E-08   112   0.273E-04    0.132E-04
RMM:  17    -0.261007703521E+03   -0.43208E-06   -0.18163E-08   106   0.218E-04    0.106E-04
RMM:  18    -0.261007703725E+03   -0.20404E-06   -0.60871E-09    85   0.149E-04    0.745E-05
RMM:  19    -0.261007703835E+03   -0.10954E-06   -0.38765E-09    77   0.122E-04    0.805E-05
RMM:  20    -0.261007703902E+03   -0.67375E-07   -0.19145E-09    62   0.929E-05    0.719E-05
RMM:  21    -0.261007703950E+03   -0.47923E-07   -0.14950E-09    63   0.873E-05    0.706E-05
RMM:  22    -0.261007703967E+03   -0.16378E-07   -0.53069E-10    48   0.736E-05    0.701E-05
RMM:  23    -0.261007703978E+03   -0.11401E-07   -0.22759E-10    44   0.703E-05    0.700E-05
RMM:  24    -0.261007703983E+03   -0.54242E-08   -0.47891E-11    39   0.677E-05
   7 F= -.26100770E+03 E0= -.26100770E+03  d E =-.292729E-01
 curvature:  -2.15 expect dE=-0.323E-01 dE for cont linesearch -0.428E-06
 trial: gam= 0.81142 g(F)=  0.150E-01 g(S)=  0.000E+00 ort =-0.703E-04 (trialstep = 0.126E+01)
 search vector abs. value=  0.312E-01
 bond charge predicted
       N       E                     dE             d eps       ncg     rms          rms(c)
DAV:   1    -0.261020320390E+03   -0.12616E-01   -0.58409E-01   192   0.288E+00    0.412E-01
RMM:   2    -0.261021390239E+03   -0.10698E-02   -0.15533E-02   160   0.465E-01    0.139E-01
RMM:   3    -0.261021537997E+03   -0.14776E-03   -0.31643E-03   170   0.207E-01    0.766E-02
RMM:   4    -0.261021565563E+03   -0.27567E-04   -0.71273E-04   175   0.949E-02    0.833E-02
RMM:   5    -0.261021575653E+03   -0.10090E-04   -0.12623E-04   204   0.368E-02    0.784E-02
RMM:   6    -0.261021575204E+03    0.44947E-06   -0.12379E-05   166   0.118E-02    0.479E-02
RMM:   7    -0.261021581593E+03   -0.63889E-05   -0.52872E-05   160   0.187E-02    0.551E-02
RMM:   8    -0.261021579353E+03    0.22396E-05   -0.72159E-06   160   0.910E-03    0.195E-02
RMM:   9    -0.261021579433E+03   -0.79595E-07   -0.49652E-06   162   0.586E-03    0.527E-03
RMM:  10    -0.261021580251E+03   -0.81868E-06   -0.79535E-07   160   0.285E-03    0.155E-02
RMM:  11    -0.261021581816E+03   -0.15644E-05   -0.12467E-06   160   0.261E-03    0.384E-03
RMM:  12    -0.261021582238E+03   -0.42176E-06   -0.83440E-07   172   0.221E-03    0.930E-04
RMM:  13    -0.261021582514E+03   -0.27604E-06   -0.12410E-07   169   0.105E-03    0.651E-04
RMM:  14    -0.261021582850E+03   -0.33612E-06   -0.20273E-08   104   0.413E-04    0.466E-04
RMM:  15    -0.261021584069E+03   -0.12190E-05   -0.42809E-08   124   0.444E-04    0.146E-03
RMM:  16    -0.261021584424E+03   -0.35491E-06   -0.19256E-08   108   0.295E-04    0.914E-04
RMM:  17    -0.261021584739E+03   -0.31581E-06   -0.10147E-08   100   0.220E-04    0.333E-04
RMM:  18    -0.261021585202E+03   -0.46286E-06   -0.16632E-08   107   0.205E-04    0.335E-04
RMM:  19    -0.261021585429E+03   -0.22720E-06   -0.72375E-09    78   0.150E-04    0.108E-04
RMM:  20    -0.261021585573E+03   -0.14340E-06   -0.52134E-09    78   0.132E-04    0.941E-05
RMM:  21    -0.261021585637E+03   -0.63879E-07   -0.25043E-09    65   0.103E-04    0.153E-04
RMM:  22    -0.261021585707E+03   -0.70610E-07   -0.21147E-09    74   0.984E-05    0.876E-05
RMM:  23    -0.261021585721E+03   -0.13562E-07   -0.71125E-10    54   0.739E-05    0.984E-05
RMM:  24    -0.261021585740E+03   -0.18608E-07   -0.34522E-10    47   0.662E-05    0.706E-05
RMM:  25    -0.261021585750E+03   -0.10405E-07   -0.21494E-10    44   0.651E-05    0.743E-05
RMM:  26    -0.261021585755E+03   -0.48931E-08    0.00000E+00    38   0.635E-05
   8 F= -.26102159E+03 E0= -.26102159E+03  d E =-.138818E-01
 trial-energy change:   -0.013882  1 .order   -0.013876   -0.018890   -0.008862
 step:   2.3805(harm=  2.3805)  dis= 0.00899  next Energy=  -261.025495 (dE=-0.178E-01)
 bond charge predicted
       N       E                     dE             d eps       ncg     rms          rms(c)
DAV:   1    -0.261024508707E+03   -0.29230E-02   -0.45649E-01   192   0.255E+00    0.365E-01
RMM:   2    -0.261025330721E+03   -0.82201E-03   -0.12048E-02   160   0.411E-01    0.123E-01
RMM:   3    -0.261025439359E+03   -0.10864E-03   -0.24042E-03   168   0.182E-01    0.674E-02
RMM:   4    -0.261025466425E+03   -0.27067E-04   -0.58138E-04   177   0.852E-02    0.745E-02
RMM:   5    -0.261025473829E+03   -0.74041E-05   -0.96718E-05   200   0.324E-02    0.713E-02
RMM:   6    -0.261025472900E+03    0.92894E-06   -0.10556E-05   210   0.971E-03    0.687E-02
RMM:   7    -0.261025476724E+03   -0.38235E-05   -0.31072E-05   160   0.130E-02    0.151E-02
RMM:   8    -0.261025480353E+03   -0.36288E-05   -0.25837E-05   160   0.132E-02    0.502E-02
RMM:   9    -0.261025476898E+03    0.34549E-05   -0.73922E-06   160   0.756E-03    0.166E-02
RMM:  10    -0.261025477891E+03   -0.99289E-06   -0.11460E-05   165   0.749E-03    0.244E-03
RMM:  11    -0.261025477955E+03   -0.64250E-07   -0.21925E-06   160   0.405E-03    0.124E-02
RMM:  12    -0.261025478738E+03   -0.78289E-06   -0.14273E-07   162   0.132E-03    0.685E-03
RMM:  13    -0.261025479746E+03   -0.10081E-05   -0.12975E-06   168   0.246E-03    0.344E-03
RMM:  14    -0.261025480022E+03   -0.27591E-06   -0.10834E-07   158   0.118E-03    0.118E-03
RMM:  15    -0.261025480678E+03   -0.65580E-06   -0.44744E-08   125   0.570E-04    0.766E-04
RMM:  16    -0.261025481170E+03   -0.49237E-06   -0.20091E-08   108   0.323E-04    0.125E-03
RMM:  17    -0.261025481569E+03   -0.39900E-06   -0.24468E-08   113   0.310E-04    0.220E-04
RMM:  18    -0.261025481895E+03   -0.32636E-06   -0.13354E-08   104   0.227E-04    0.159E-04
RMM:  19    -0.261025482089E+03   -0.19337E-06   -0.60193E-09    83   0.150E-04    0.164E-04
RMM:  20    -0.261025482215E+03   -0.12619E-06   -0.49530E-09    81   0.129E-04    0.228E-04
RMM:  21    -0.261025482276E+03   -0.61125E-07   -0.22542E-09    61   0.977E-05    0.140E-04
RMM:  22    -0.261025482318E+03   -0.41691E-07   -0.18342E-09    70   0.971E-05    0.739E-05
RMM:  23    -0.261025482331E+03   -0.12933E-07   -0.62066E-10    54   0.782E-05    0.707E-05
RMM:  24    -0.261025482350E+03   -0.19681E-07   -0.43151E-10    53   0.763E-05    0.776E-05
RMM:  25    -0.261025482354E+03   -0.34997E-08   -0.11550E-10    42   0.683E-05
   9 F= -.26102548E+03 E0= -.26102548E+03  d E =-.177784E-01
 curvature:  -2.49 expect dE=-0.217E-01 dE for cont linesearch -0.132E-06
 trial: gam= 0.56888 g(F)=  0.871E-02 g(S)=  0.000E+00 ort =-0.407E-04 (trialstep = 0.149E+01)
 search vector abs. value=  0.188E-01
 bond charge predicted
       N       E                     dE             d eps       ncg     rms          rms(c)
DAV:   1    -0.261035205183E+03   -0.97228E-02   -0.46895E-01   192   0.263E+00    0.215E-01
RMM:   2    -0.261035529747E+03   -0.32456E-03   -0.74456E-03   160   0.333E-01    0.989E-02
RMM:   3    -0.261035580780E+03   -0.51033E-04   -0.17573E-03   168   0.150E-01    0.543E-02
RMM:   4    -0.261035609457E+03   -0.28678E-04   -0.40223E-04   182   0.700E-02    0.384E-02
RMM:   5    -0.261035617219E+03   -0.77620E-05   -0.62039E-05   190   0.264E-02    0.240E-02
RMM:   6    -0.261035623267E+03   -0.60479E-05   -0.11111E-05   165   0.111E-02    0.428E-03
RMM:   7    -0.261035624880E+03   -0.16129E-05   -0.39527E-06   182   0.611E-03    0.254E-03
RMM:   8    -0.261035626106E+03   -0.12258E-05   -0.86065E-07   199   0.242E-03    0.195E-03
RMM:   9    -0.261035627736E+03   -0.16299E-05   -0.23432E-07   159   0.127E-03    0.103E-03
RMM:  10    -0.261035630012E+03   -0.22761E-05   -0.19702E-07   158   0.106E-03    0.499E-04
RMM:  11    -0.261035630377E+03   -0.36474E-06   -0.30256E-08   115   0.497E-04    0.225E-04
RMM:  12    -0.261035633041E+03   -0.26639E-05   -0.13533E-07   148   0.688E-04    0.310E-04
RMM:  13    -0.261035633310E+03   -0.26917E-06   -0.20809E-08   110   0.320E-04    0.185E-04
RMM:  14    -0.261035634468E+03   -0.11577E-05   -0.47105E-08   129   0.364E-04    0.953E-05
RMM:  15    -0.261035635100E+03   -0.63284E-06   -0.24764E-08   109   0.258E-04    0.117E-04
RMM:  16    -0.261035635372E+03   -0.27143E-06   -0.88931E-09    82   0.172E-04    0.718E-05
RMM:  17    -0.261035635569E+03   -0.19711E-06   -0.57337E-09    80   0.142E-04    0.737E-05
RMM:  18    -0.261035635692E+03   -0.12295E-06   -0.37888E-09    75   0.118E-04    0.705E-05
RMM:  19    -0.261035635741E+03   -0.48898E-07   -0.20990E-09    70   0.929E-05    0.692E-05
RMM:  20    -0.261035635763E+03   -0.22221E-07   -0.83622E-10    53   0.736E-05    0.687E-05
RMM:  21    -0.261035635777E+03   -0.14363E-07   -0.28514E-10    43   0.665E-05    0.686E-05
RMM:  22    -0.261035635788E+03   -0.10354E-07   -0.95994E-11    41   0.646E-05    0.686E-05
RMM:  23    -0.261035635793E+03   -0.49949E-08    0.00000E+00    38   0.635E-05
  10 F= -.26103564E+03 E0= -.26103564E+03  d E =-.101534E-01
 trial-energy change:   -0.010153  1 .order   -0.010150   -0.012914   -0.007386
 step:   3.4746(harm=  3.4746)  dis= 0.01229  next Energy=  -261.040568 (dE=-0.151E-01)
 bond charge predicted
       N       E                     dE             d eps       ncg     rms          rms(c)
DAV:   1    -0.261039773483E+03   -0.41377E-02   -0.83843E-01   160   0.351E+00    0.288E-01
RMM:   2    -0.261040366922E+03   -0.59344E-03   -0.13302E-02   160   0.445E-01    0.132E-01
RMM:   3    -0.261040455222E+03   -0.88299E-04   -0.31499E-03   168   0.201E-01    0.728E-02
RMM:   4    -0.261040503133E+03   -0.47911E-04   -0.71905E-04   182   0.936E-02    0.513E-02
RMM:   5    -0.261040516002E+03   -0.12869E-04   -0.11009E-04   190   0.353E-02    0.318E-02
RMM:   6    -0.261040525256E+03   -0.92538E-05   -0.19753E-05   165   0.149E-02    0.562E-03
RMM:   7    -0.261040527930E+03   -0.26740E-05   -0.70846E-06   183   0.814E-03    0.339E-03
RMM:   8    -0.261040529833E+03   -0.19039E-05   -0.14384E-06   200   0.316E-03    0.265E-03
RMM:   9    -0.261040532467E+03   -0.26331E-05   -0.42134E-07   161   0.169E-03    0.146E-03
RMM:  10    -0.261040536092E+03   -0.36252E-05   -0.35299E-07   161   0.143E-03    0.697E-04
RMM:  11    -0.261040536565E+03   -0.47290E-06   -0.51551E-08   137   0.657E-04    0.291E-04
RMM:  12    -0.261040540786E+03   -0.42211E-05   -0.25358E-07   160   0.961E-04    0.473E-04
RMM:  13    -0.261040541103E+03   -0.31699E-06   -0.30521E-08   124   0.417E-04    0.261E-04
RMM:  14    -0.261040542879E+03   -0.17764E-05   -0.78465E-08   136   0.474E-04    0.117E-04
RMM:  15    -0.261040543809E+03   -0.92974E-06   -0.42296E-08   131   0.329E-04    0.150E-04
RMM:  16    -0.261040544267E+03   -0.45791E-06   -0.14573E-08    94   0.212E-04    0.756E-05
RMM:  17    -0.261040544531E+03   -0.26410E-06   -0.77371E-09    78   0.157E-04    0.740E-05
RMM:  18    -0.261040544725E+03   -0.19459E-06   -0.61661E-09    86   0.139E-04    0.713E-05
RMM:  19    -0.261040544781E+03   -0.55261E-07   -0.22052E-09    67   0.971E-05    0.687E-05
RMM:  20    -0.261040544817E+03   -0.36671E-07   -0.97462E-10    53   0.794E-05    0.684E-05
RMM:  21    -0.261040544832E+03   -0.14461E-07   -0.34133E-10    46   0.705E-05    0.683E-05
RMM:  22    -0.261040544844E+03   -0.11645E-07   -0.13832E-10    44   0.672E-05    0.683E-05
RMM:  23    -0.261040544853E+03   -0.95170E-08   -0.50218E-11    40   0.649E-05
  11 F= -.26104054E+03 E0= -.26104054E+03  d E =-.150625E-01
 curvature:  -3.76 expect dE=-0.292E-01 dE for cont linesearch -0.282E-06
 trial: gam= 0.89659 g(F)=  0.779E-02 g(S)=  0.000E+00 ort =-0.375E-04 (trialstep = 0.155E+01)
 search vector abs. value=  0.228E-01
 bond charge predicted
       N       E                     dE             d eps       ncg     rms          rms(c)
DAV:   1    -0.261048642959E+03   -0.80981E-02   -0.60960E-01   160   0.299E+00    0.388E-01
RMM:   2    -0.261048964923E+03   -0.32196E-03   -0.93309E-03   160   0.364E-01    0.139E-01
RMM:   3    -0.261049037829E+03   -0.72906E-04   -0.23825E-03   169   0.170E-01    0.666E-02
RMM:   4    -0.261049056906E+03   -0.19078E-04   -0.47385E-04   174   0.792E-02    0.502E-02
RMM:   5    -0.261049069684E+03   -0.12778E-04   -0.10493E-04   200   0.339E-02    0.255E-02
RMM:   6    -0.261049074652E+03   -0.49686E-05   -0.15189E-05   171   0.123E-02    0.495E-03
RMM:   7    -0.261049078263E+03   -0.36109E-05   -0.54538E-06   193   0.679E-03    0.296E-03
RMM:   8    -0.261049080709E+03   -0.24452E-05   -0.73593E-07   184   0.246E-03    0.196E-03
RMM:   9    -0.261049085204E+03   -0.44958E-05   -0.45575E-07   161   0.167E-03    0.103E-03
RMM:  10    -0.261049087102E+03   -0.18973E-05   -0.88222E-08   143   0.781E-04    0.338E-04
RMM:  11    -0.261049091454E+03   -0.43527E-05   -0.19392E-07   146   0.819E-04    0.355E-04
RMM:  12    -0.261049093592E+03   -0.21380E-05   -0.11231E-07   137   0.559E-04    0.227E-04
RMM:  13    -0.261049096441E+03   -0.28485E-05   -0.16840E-07   151   0.605E-04    0.121E-04
RMM:  14    -0.261049097310E+03   -0.86932E-06   -0.27526E-08   116   0.290E-04    0.121E-04
RMM:  15    -0.261049097852E+03   -0.54178E-06   -0.13959E-08    97   0.207E-04    0.729E-05
RMM:  16    -0.261049098283E+03   -0.43055E-06   -0.12790E-08    89   0.179E-04    0.782E-05
RMM:  17    -0.261049098410E+03   -0.12774E-06   -0.39005E-09    78   0.121E-04    0.696E-05
RMM:  18    -0.261049098496E+03   -0.85267E-07   -0.23878E-09    71   0.983E-05    0.679E-05
RMM:  19    -0.261049098520E+03   -0.24836E-07   -0.60870E-10    48   0.741E-05    0.675E-05
RMM:  20    -0.261049098548E+03   -0.27812E-07   -0.30314E-10    47   0.714E-05    0.675E-05
RMM:  21    -0.261049098556E+03   -0.75197E-08   -0.16176E-10    44   0.667E-05
  12 F= -.26104910E+03 E0= -.26104910E+03  d E =-.855370E-02
 trial-energy change:   -0.008554  1 .order   -0.008554   -0.012025   -0.005084
 step:   2.6868(harm=  2.6868)  dis= 0.01136  next Energy=  -261.050961 (dE=-0.104E-01)
 bond charge predicted
       N       E                     dE             d eps       ncg     rms          rms(c)
DAV:   1    -0.261050712372E+03   -0.16138E-02   -0.32716E-01   160   0.219E+00    0.285E-01
RMM:   2    -0.261050878581E+03   -0.16621E-03   -0.50171E-03   160   0.267E-01    0.102E-01
RMM:   3    -0.261050919290E+03   -0.40710E-04   -0.12829E-03   169   0.125E-01    0.488E-02
RMM:   4    -0.261050930952E+03   -0.11662E-04   -0.25489E-04   174   0.580E-02    0.365E-02
RMM:   5    -0.261050938080E+03   -0.71279E-05   -0.56268E-05   200   0.248E-02    0.185E-02
RMM:   6    -0.261050941039E+03   -0.29592E-05   -0.81103E-06   171   0.898E-03    0.359E-03
RMM:   7    -0.261050943148E+03   -0.21090E-05   -0.28725E-06   192   0.494E-03    0.216E-03
RMM:   8    -0.261050944649E+03   -0.15010E-05   -0.40372E-07   184   0.181E-03    0.139E-03
RMM:   9    -0.261050947310E+03   -0.26611E-05   -0.23219E-07   161   0.119E-03    0.724E-04
RMM:  10    -0.261050948534E+03   -0.12235E-05   -0.48711E-08   131   0.568E-04    0.248E-04
RMM:  11    -0.261050951193E+03   -0.26599E-05   -0.10669E-07   137   0.601E-04    0.245E-04
RMM:  12    -0.261050952560E+03   -0.13668E-05   -0.65439E-08   134   0.421E-04    0.161E-04
RMM:  13    -0.261050954301E+03   -0.17406E-05   -0.95326E-08   143   0.453E-04    0.964E-05
RMM:  14    -0.261050954840E+03   -0.53863E-06   -0.16716E-08    99   0.236E-04    0.948E-05
RMM:  15    -0.261050955192E+03   -0.35212E-06   -0.98522E-09    86   0.180E-04    0.694E-05
RMM:  16    -0.261050955444E+03   -0.25220E-06   -0.74382E-09    83   0.151E-04    0.714E-05
RMM:  17    -0.261050955549E+03   -0.10536E-06   -0.37274E-09    74   0.116E-04    0.678E-05
RMM:  18    -0.261050955586E+03   -0.36940E-07   -0.17279E-09    69   0.872E-05    0.667E-05
RMM:  19    -0.261050955612E+03   -0.25619E-07   -0.48953E-10    46   0.692E-05    0.667E-05
RMM:  20    -0.261050955625E+03   -0.12835E-07   -0.15824E-10    43   0.658E-05    0.666E-05
RMM:  21    -0.261050955633E+03   -0.79672E-08   -0.41673E-11    39   0.643E-05
  13 F= -.26105096E+03 E0= -.26105096E+03  d E =-.104108E-01
 curvature:  -3.95 expect dE=-0.177E-01 dE for cont linesearch -0.125E-07
 trial: gam= 0.56836 g(F)=  0.447E-02 g(S)=  0.000E+00 ort =-0.849E-05 (trialstep = 0.178E+01)
 search vector abs. value=  0.118E-01
 bond charge predicted
       N       E                     dE             d eps       ncg     rms          rms(c)
DAV:   1    -0.261055300967E+03   -0.43453E-02   -0.33795E-01   160   0.217E+00    0.251E-01
RMM:   2    -0.261055468835E+03   -0.16787E-03   -0.70587E-03   160   0.322E-01    0.107E-01
RMM:   3    -0.261055481970E+03   -0.13135E-04   -0.17028E-03   168   0.146E-01    0.551E-02
RMM:   4    -0.261055500553E+03   -0.18583E-04   -0.33927E-04   174   0.677E-02    0.327E-02
RMM:   5    -0.261055507662E+03   -0.71092E-05   -0.61448E-05   181   0.282E-02    0.125E-02
RMM:   6    -0.261055510535E+03   -0.28733E-05   -0.14172E-05   186   0.124E-02    0.350E-03
RMM:   7    -0.261055512327E+03   -0.17921E-05   -0.29330E-06   197   0.497E-03    0.235E-03
RMM:   8    -0.261055514064E+03   -0.17367E-05   -0.36530E-07   165   0.172E-03    0.744E-04
RMM:   9    -0.261055515345E+03   -0.12810E-05   -0.10307E-07   154   0.879E-04    0.410E-04
RMM:  10    -0.261055517086E+03   -0.17413E-05   -0.60738E-08   134   0.525E-04    0.172E-04
RMM:  11    -0.261055518428E+03   -0.13419E-05   -0.51583E-08   131   0.407E-04    0.161E-04
RMM:  12    -0.261055520498E+03   -0.20703E-05   -0.11938E-07   143   0.519E-04    0.109E-04
RMM:  13    -0.261055521025E+03   -0.52685E-06   -0.24035E-08   113   0.268E-04    0.830E-05
RMM:  14    -0.261055521410E+03   -0.38465E-06   -0.13485E-08    93   0.200E-04    0.704E-05
RMM:  15    -0.261055521668E+03   -0.25827E-06   -0.85459E-09    86   0.160E-04    0.682E-05
RMM:  16    -0.261055521828E+03   -0.15983E-06   -0.51621E-09    80   0.129E-04    0.669E-05
RMM:  17    -0.261055521896E+03   -0.67419E-07   -0.24584E-09    68   0.999E-05    0.664E-05
RMM:  18    -0.261055521925E+03   -0.29922E-07   -0.11122E-09    57   0.802E-05    0.663E-05
RMM:  19    -0.261055521944E+03   -0.18419E-07   -0.31703E-10    44   0.701E-05    0.662E-05
RMM:  20    -0.261055521951E+03   -0.71013E-08   -0.83027E-11    40   0.672E-05
  14 F= -.26105552E+03 E0= -.26105552E+03  d E =-.456632E-02
 trial-energy change:   -0.004566  1 .order   -0.004574   -0.007937   -0.001212
 step:   2.0985(harm=  2.0985)  dis= 0.00706  next Energy=  -261.055639 (dE=-0.468E-02)
 bond charge predicted
       N       E                     dE             d eps       ncg     rms          rms(c)
DAV:   1    -0.261055624457E+03   -0.10251E-03   -0.10974E-02   192   0.392E-01    0.451E-02
RMM:   2    -0.261055627124E+03   -0.26679E-05   -0.22877E-04   160   0.579E-02    0.192E-02
RMM:   3    -0.261055628783E+03   -0.16583E-05   -0.55371E-05   168   0.264E-02    0.994E-03
RMM:   4    -0.261055630141E+03   -0.13584E-05   -0.11106E-05   174   0.122E-02    0.595E-03
RMM:   5    -0.261055630534E+03   -0.39285E-06   -0.20190E-06   182   0.509E-03    0.232E-03
RMM:   6    -0.261055630636E+03   -0.10176E-06   -0.43595E-07   181   0.220E-03    0.622E-04
RMM:   7    -0.261055630724E+03   -0.88756E-07   -0.97108E-08   153   0.924E-04    0.411E-04
RMM:   8    -0.261055630822E+03   -0.97123E-07   -0.14576E-08   100   0.377E-04    0.143E-04
RMM:   9    -0.261055630895E+03   -0.73800E-07   -0.44198E-09    99   0.220E-04    0.997E-05
RMM:  10    -0.261055631016E+03   -0.12102E-06   -0.41901E-09    98   0.163E-04    0.727E-05
RMM:  11    -0.261055631102E+03   -0.85674E-07   -0.27574E-09    90   0.119E-04    0.704E-05
RMM:  12    -0.261055631234E+03   -0.13232E-06   -0.49917E-09    81   0.128E-04    0.691E-05
RMM:  13    -0.261055631281E+03   -0.46330E-07   -0.24001E-09    70   0.979E-05    0.669E-05
RMM:  14    -0.261055631315E+03   -0.34772E-07   -0.14553E-09    61   0.862E-05    0.663E-05
RMM:  15    -0.261055631340E+03   -0.24818E-07   -0.98629E-10    58   0.796E-05    0.662E-05
RMM:  16    -0.261055631354E+03   -0.13744E-07   -0.54916E-10    51   0.721E-05    0.662E-05
RMM:  17    -0.261055631362E+03   -0.78544E-08   -0.24091E-10    44   0.677E-05
  15 F= -.26105563E+03 E0= -.26105563E+03  d E =-.467573E-02
 curvature:  -2.78 expect dE=-0.417E-02 dE for cont linesearch -0.554E-09
 trial: gam= 0.33355 g(F)=  0.150E-02 g(S)=  0.000E+00 ort = 0.154E-05 (trialstep = 0.184E+01)
 search vector abs. value=  0.282E-02
 bond charge predicted
       N       E                     dE             d eps       ncg     rms          rms(c)
DAV:   1    -0.261057614209E+03   -0.19829E-02   -0.12176E-01   160   0.131E+00    0.127E-01
RMM:   2    -0.261057732469E+03   -0.11826E-03   -0.23205E-03   160   0.183E-01    0.508E-02
RMM:   3    -0.261057757513E+03   -0.25044E-04   -0.54148E-04   169   0.829E-02    0.313E-02
RMM:   4    -0.261057764350E+03   -0.68373E-05   -0.10291E-04   175   0.372E-02    0.190E-02
RMM:   5    -0.261057767279E+03   -0.29289E-05   -0.18488E-05   178   0.156E-02    0.586E-03
RMM:   6    -0.261057768442E+03   -0.11625E-05   -0.54439E-06   185   0.742E-03    0.256E-03
RMM:   7    -0.261057768833E+03   -0.39173E-06   -0.11085E-06   196   0.315E-03    0.198E-03
RMM:   8    -0.261057769212E+03   -0.37896E-06   -0.14100E-07   171   0.106E-03    0.635E-04
RMM:   9    -0.261057769539E+03   -0.32709E-06   -0.30763E-08   113   0.510E-04    0.241E-04
RMM:  10    -0.261057769822E+03   -0.28298E-06   -0.10853E-08    99   0.280E-04    0.104E-04
RMM:  11    -0.261057770041E+03   -0.21896E-06   -0.76989E-09   100   0.196E-04    0.790E-05
RMM:  12    -0.261057770395E+03   -0.35398E-06   -0.14348E-08   102   0.202E-04    0.779E-05
RMM:  13    -0.261057770491E+03   -0.95715E-07   -0.41877E-09    80   0.128E-04    0.694E-05
RMM:  14    -0.261057770629E+03   -0.13767E-06   -0.54201E-09    78   0.127E-04    0.669E-05
RMM:  15    -0.261057770674E+03   -0.45544E-07   -0.20986E-09    68   0.982E-05    0.671E-05
RMM:  16    -0.261057770716E+03   -0.42233E-07   -0.12748E-09    59   0.854E-05    0.661E-05
RMM:  17    -0.261057770732E+03   -0.15334E-07   -0.49219E-10    51   0.766E-05    0.662E-05
RMM:  18    -0.261057770743E+03   -0.11063E-07   -0.31593E-10    47   0.715E-05    0.660E-05
RMM:  19    -0.261057770749E+03   -0.62319E-08   -0.14504E-10    42   0.691E-05
  16 F= -.26105777E+03 E0= -.26105777E+03  d E =-.213939E-02
 trial-energy change:   -0.002139  1 .order   -0.002139   -0.002762   -0.001517
 step:   4.0888(harm=  4.0888)  dis= 0.00565  next Energy=  -261.058696 (dE=-0.306E-02)
 bond charge predicted
       N       E                     dE             d eps       ncg     rms          rms(c)
DAV:   1    -0.261058463342E+03   -0.69260E-03   -0.18110E-01   160   0.159E+00    0.155E-01
RMM:   2    -0.261058642289E+03   -0.17895E-03   -0.34510E-03   160   0.223E-01    0.620E-02
RMM:   3    -0.261058678438E+03   -0.36148E-04   -0.80528E-04   169   0.101E-01    0.382E-02
RMM:   4    -0.261058687747E+03   -0.93091E-05   -0.15302E-04   175   0.454E-02    0.231E-02
RMM:   5    -0.261058691736E+03   -0.39889E-05   -0.27801E-05   179   0.190E-02    0.718E-03
RMM:   6    -0.261058693349E+03   -0.16133E-05   -0.77731E-06   183   0.891E-03    0.310E-03
RMM:   7    -0.261058693911E+03   -0.56228E-06   -0.16652E-06   198   0.385E-03    0.240E-03
RMM:   8    -0.261058694436E+03   -0.52451E-06   -0.21259E-07   175   0.129E-03    0.798E-04
RMM:   9    -0.261058694893E+03   -0.45709E-06   -0.41051E-08   120   0.596E-04    0.297E-04
RMM:  10    -0.261058695274E+03   -0.38146E-06   -0.15485E-08   102   0.325E-04    0.114E-04
RMM:  11    -0.261058695601E+03   -0.32724E-06   -0.10934E-08   101   0.233E-04    0.847E-05
RMM:  12    -0.261058695988E+03   -0.38668E-06   -0.14037E-08   103   0.212E-04    0.802E-05
RMM:  13    -0.261058696221E+03   -0.23251E-06   -0.10511E-08    91   0.172E-04    0.723E-05
RMM:  14    -0.261058696382E+03   -0.16145E-06   -0.69172E-09    86   0.144E-04    0.682E-05
RMM:  15    -0.261058696437E+03   -0.55028E-07   -0.28695E-09    76   0.106E-04    0.669E-05
RMM:  16    -0.261058696491E+03   -0.53689E-07   -0.17202E-09    62   0.868E-05    0.659E-05
RMM:  17    -0.261058696506E+03   -0.15247E-07   -0.56103E-10    47   0.728E-05    0.660E-05
RMM:  18    -0.261058696524E+03   -0.17491E-07   -0.46363E-10    48   0.731E-05    0.657E-05
RMM:  19    -0.261058696529E+03   -0.50059E-08   -0.13934E-10    42   0.689E-05
  17 F= -.26105870E+03 E0= -.26105870E+03  d E =-.306517E-02
 curvature:  -3.84 expect dE=-0.804E-02 dE for cont linesearch -0.107E-09
 trial: gam= 1.39795 g(F)=  0.209E-02 g(S)=  0.000E+00 ort = 0.280E-06 (trialstep = 0.849E+00)
 search vector abs. value=  0.760E-02
 bond charge predicted
       N       E                     dE             d eps       ncg     rms          rms(c)
DAV:   1    -0.261060085871E+03   -0.13893E-02   -0.73559E-02   160   0.101E+00    0.102E-01
RMM:   2    -0.261060155014E+03   -0.69142E-04   -0.13255E-03   160   0.137E-01    0.390E-02
RMM:   3    -0.261060174075E+03   -0.19061E-04   -0.32117E-04   171   0.626E-02    0.245E-02
RMM:   4    -0.261060178706E+03   -0.46308E-05   -0.59322E-05   179   0.276E-02    0.152E-02
RMM:   5    -0.261060180600E+03   -0.18945E-05   -0.10082E-05   187   0.111E-02    0.531E-03
RMM:   6    -0.261060181333E+03   -0.73288E-06   -0.22199E-06   170   0.490E-03    0.177E-03
RMM:   7    -0.261060181556E+03   -0.22304E-06   -0.77981E-07   202   0.255E-03    0.164E-03
RMM:   8    -0.261060181660E+03   -0.10408E-06   -0.82350E-08   140   0.825E-04    0.109E-03
RMM:   9    -0.261060181865E+03   -0.20468E-06   -0.39782E-08   126   0.500E-04    0.334E-04
RMM:  10    -0.261060182013E+03   -0.14809E-06   -0.89044E-09    99   0.286E-04    0.178E-04
RMM:  11    -0.261060182153E+03   -0.13987E-06   -0.50074E-09    99   0.174E-04    0.923E-05
RMM:  12    -0.261060182277E+03   -0.12365E-06   -0.33927E-09    82   0.124E-04    0.709E-05
RMM:  13    -0.261060182439E+03   -0.16272E-06   -0.63362E-09    94   0.138E-04    0.724E-05
RMM:  14    -0.261060182474E+03   -0.34870E-07   -0.16110E-09    62   0.873E-05    0.684E-05
RMM:  15    -0.261060182559E+03   -0.85322E-07   -0.33321E-09    74   0.106E-04    0.665E-05
RMM:  16    -0.261060182568E+03   -0.89531E-08   -0.81865E-10    49   0.766E-05
  18 F= -.26106018E+03 E0= -.26106018E+03  d E =-.148604E-02
 trial-energy change:   -0.001486  1 .order   -0.001486   -0.001779   -0.001193
 step:   2.5776(harm=  2.5776)  dis= 0.00468  next Energy=  -261.061397 (dE=-0.270E-02)
 bond charge predicted
       N       E                     dE             d eps       ncg     rms          rms(c)
DAV:   1    -0.261060995334E+03   -0.81277E-03   -0.30477E-01   160   0.205E+00    0.207E-01
RMM:   2    -0.261061298707E+03   -0.30337E-03   -0.54954E-03   160   0.279E-01    0.794E-02
RMM:   3    -0.261061370440E+03   -0.71734E-04   -0.13308E-03   171   0.127E-01    0.500E-02
RMM:   4    -0.261061384832E+03   -0.14392E-04   -0.24629E-04   179   0.561E-02    0.312E-02
RMM:   5    -0.261061390381E+03   -0.55490E-05   -0.41727E-05   187   0.227E-02    0.109E-02
RMM:   6    -0.261061392657E+03   -0.22764E-05   -0.92204E-06   170   0.100E-02    0.364E-03
RMM:   7    -0.261061393417E+03   -0.75958E-06   -0.32303E-06   203   0.518E-03    0.335E-03
RMM:   8    -0.261061393768E+03   -0.35054E-06   -0.35237E-07   180   0.168E-03    0.226E-03
RMM:   9    -0.261061394441E+03   -0.67359E-06   -0.16908E-07   158   0.102E-03    0.688E-04
RMM:  10    -0.261061394905E+03   -0.46368E-06   -0.37217E-08   120   0.568E-04    0.407E-04
RMM:  11    -0.261061395291E+03   -0.38638E-06   -0.16151E-08   105   0.309E-04    0.141E-04
RMM:  12    -0.261061395639E+03   -0.34743E-06   -0.10271E-08   102   0.214E-04    0.873E-05
RMM:  13    -0.261061396135E+03   -0.49661E-06   -0.20477E-08   107   0.231E-04    0.821E-05
RMM:  14    -0.261061396298E+03   -0.16304E-06   -0.60031E-09    78   0.146E-04    0.727E-05
RMM:  15    -0.261061396506E+03   -0.20786E-06   -0.10072E-08    94   0.163E-04    0.695E-05
RMM:  16    -0.261061396544E+03   -0.38210E-07   -0.24188E-09    68   0.101E-04    0.684E-05
RMM:  17    -0.261061396595E+03   -0.50564E-07   -0.15683E-09    61   0.868E-05    0.653E-05
RMM:  18    -0.261061396617E+03   -0.22159E-07   -0.76584E-10    52   0.763E-05    0.654E-05
RMM:  19    -0.261061396637E+03   -0.20238E-07   -0.39238E-10    47   0.737E-05    0.651E-05
RMM:  20    -0.261061396643E+03   -0.59372E-08   -0.30610E-10    48   0.703E-05
  19 F= -.26106140E+03 E0= -.26106140E+03  d E =-.270011E-02
 curvature:  -4.67 expect dE=-0.586E-02 dE for cont linesearch -0.238E-09
 trial: gam= 0.59796 g(F)=  0.125E-02 g(S)=  0.000E+00 ort =-0.622E-06 (trialstep = 0.119E+01)
 search vector abs. value=  0.397E-02
 bond charge predicted
       N       E                     dE             d eps       ncg     rms          rms(c)
DAV:   1    -0.261062512852E+03   -0.11162E-02   -0.82628E-02   160   0.105E+00    0.111E-01
RMM:   2    -0.261062587994E+03   -0.75142E-04   -0.15804E-03   160   0.148E-01    0.433E-02
RMM:   3    -0.261062605691E+03   -0.17697E-04   -0.38780E-04   171   0.679E-02    0.265E-02
RMM:   4    -0.261062609859E+03   -0.41681E-05   -0.63791E-05   173   0.296E-02    0.174E-02
RMM:   5    -0.261062611860E+03   -0.20009E-05   -0.13384E-05   190   0.128E-02    0.771E-03
RMM:   6    -0.261062612857E+03   -0.99716E-06   -0.29396E-06   170   0.559E-03    0.196E-03
RMM:   7    -0.261062613078E+03   -0.22092E-06   -0.90173E-07   203   0.282E-03    0.134E-03
RMM:   8    -0.261062613167E+03   -0.88876E-07   -0.10974E-07   156   0.948E-04    0.107E-03
RMM:   9    -0.261062613365E+03   -0.19840E-06   -0.50016E-08   138   0.576E-04    0.341E-04
RMM:  10    -0.261062613510E+03   -0.14490E-06   -0.10187E-08    99   0.315E-04    0.155E-04
RMM:  11    -0.261062613662E+03   -0.15185E-06   -0.55441E-09    99   0.188E-04    0.114E-04
RMM:  12    -0.261062613817E+03   -0.15512E-06   -0.48190E-09    89   0.139E-04    0.719E-05
RMM:  13    -0.261062613998E+03   -0.18029E-06   -0.60112E-09    91   0.141E-04    0.742E-05
RMM:  14    -0.261062614096E+03   -0.98418E-07   -0.42082E-09    74   0.115E-04    0.708E-05
RMM:  15    -0.261062614162E+03   -0.66113E-07   -0.32260E-09    69   0.104E-04    0.658E-05
RMM:  16    -0.261062614189E+03   -0.26943E-07   -0.15406E-09    64   0.867E-05    0.664E-05
RMM:  17    -0.261062614213E+03   -0.24102E-07   -0.78737E-10    50   0.758E-05    0.650E-05
RMM:  18    -0.261062614224E+03   -0.11310E-07   -0.32909E-10    44   0.727E-05    0.651E-05
RMM:  19    -0.261062614235E+03   -0.10663E-07   -0.18774E-10    43   0.727E-05    0.649E-05
RMM:  20    -0.261062614238E+03   -0.33615E-08   -0.42082E-11    40   0.716E-05
  20 F= -.26106261E+03 E0= -.26106261E+03  d E =-.121760E-02
 trial-energy change:   -0.001218  1 .order   -0.001218   -0.001498   -0.000937
 step:   3.1925(harm=  3.1925)  dis= 0.00495  next Energy=  -261.063398 (dE=-0.200E-02)
 bond charge predicted
       N       E                     dE             d eps       ncg     rms          rms(c)
DAV:   1    -0.261063112499E+03   -0.49826E-03   -0.23099E-01   160   0.175E+00    0.185E-01
RMM:   2    -0.261063331920E+03   -0.21942E-03   -0.44217E-03   160   0.247E-01    0.724E-02
RMM:   3    -0.261063376316E+03   -0.44395E-04   -0.10840E-03   171   0.114E-01    0.443E-02
RMM:   4    -0.261063384975E+03   -0.86590E-05   -0.17807E-04   173   0.493E-02    0.291E-02
RMM:   5    -0.261063389304E+03   -0.43294E-05   -0.37631E-05   191   0.213E-02    0.130E-02
RMM:   6    -0.261063391462E+03   -0.21583E-05   -0.77406E-06   169   0.910E-03    0.346E-03
RMM:   7    -0.261063392024E+03   -0.56158E-06   -0.25855E-06   205   0.473E-03    0.234E-03
RMM:   8    -0.261063392198E+03   -0.17414E-06   -0.28373E-07   182   0.152E-03    0.197E-03
RMM:   9    -0.261063392708E+03   -0.50992E-06   -0.15265E-07   157   0.979E-04    0.687E-04
RMM:  10    -0.261063393063E+03   -0.35493E-06   -0.36779E-08   119   0.558E-04    0.302E-04
RMM:  11    -0.261063393389E+03   -0.32639E-06   -0.13220E-08   100   0.299E-04    0.183E-04
RMM:  12    -0.261063393722E+03   -0.33264E-06   -0.10026E-08   101   0.210E-04    0.909E-05
RMM:  13    -0.261063394110E+03   -0.38781E-06   -0.14507E-08   104   0.196E-04    0.803E-05
RMM:  14    -0.261063394392E+03   -0.28227E-06   -0.10584E-08    87   0.178E-04    0.101E-04
RMM:  15    -0.261063394529E+03   -0.13666E-06   -0.69400E-09    83   0.143E-04    0.670E-05
RMM:  16    -0.261063394585E+03   -0.56731E-07   -0.29574E-09    76   0.107E-04    0.703E-05
RMM:  17    -0.261063394646E+03   -0.60729E-07   -0.18995E-09    60   0.887E-05    0.671E-05
RMM:  18    -0.261063394664E+03   -0.17480E-07   -0.74447E-10    50   0.760E-05    0.660E-05
RMM:  19    -0.261063394690E+03   -0.26637E-07   -0.59032E-10    51   0.759E-05    0.651E-05
RMM:  20    -0.261063394693E+03   -0.30705E-08   -0.15746E-10    42   0.692E-05
  21 F= -.26106339E+03 E0= -.26106339E+03  d E =-.199805E-02
 curvature:  -5.05 expect dE=-0.623E-02 dE for cont linesearch -0.171E-07
 trial: gam= 0.98590 g(F)=  0.123E-02 g(S)=  0.000E+00 ort =-0.367E-05 (trialstep = 0.124E+01)
 search vector abs. value=  0.509E-02
 bond charge predicted
       N       E                     dE             d eps       ncg     rms          rms(c)
DAV:   1    -0.261064476047E+03   -0.10814E-02   -0.11135E-01   160   0.120E+00    0.103E-01
RMM:   2    -0.261064601676E+03   -0.12563E-03   -0.21154E-03   160   0.170E-01    0.424E-02
RMM:   3    -0.261064634708E+03   -0.33032E-04   -0.49077E-04   169   0.782E-02    0.313E-02
RMM:   4    -0.261064640904E+03   -0.61963E-05   -0.97877E-05   181   0.350E-02    0.191E-02
RMM:   5    -0.261064643137E+03   -0.22332E-05   -0.14318E-05   181   0.137E-02    0.698E-03
RMM:   6    -0.261064644303E+03   -0.11658E-05   -0.43896E-06   177   0.687E-03    0.252E-03
RMM:   7    -0.261064644627E+03   -0.32361E-06   -0.13327E-06   185   0.334E-03    0.213E-03
RMM:   8    -0.261064644810E+03   -0.18341E-06   -0.20243E-07   183   0.137E-03    0.123E-03
RMM:   9    -0.261064645048E+03   -0.23775E-06   -0.80069E-08   152   0.703E-04    0.308E-04
RMM:  10    -0.261064645258E+03   -0.21038E-06   -0.16033E-08   102   0.388E-04    0.208E-04
RMM:  11    -0.261064645431E+03   -0.17281E-06   -0.57708E-09    99   0.203E-04    0.110E-04
RMM:  12    -0.261064645653E+03   -0.22185E-06   -0.61023E-09    91   0.158E-04    0.776E-05
RMM:  13    -0.261064645828E+03   -0.17564E-06   -0.64195E-09    91   0.149E-04    0.102E-04
RMM:  14    -0.261064645978E+03   -0.14959E-06   -0.67816E-09    84   0.140E-04    0.749E-05
RMM:  15    -0.261064646028E+03   -0.49717E-07   -0.19324E-09    69   0.988E-05    0.665E-05
RMM:  16    -0.261064646073E+03   -0.45507E-07   -0.12901E-09    61   0.857E-05    0.654E-05
RMM:  17    -0.261064646097E+03   -0.23767E-07   -0.43700E-10    46   0.764E-05    0.648E-05
RMM:  18    -0.261064646114E+03   -0.16600E-07   -0.44027E-10    50   0.771E-05    0.649E-05
RMM:  19    -0.261064646122E+03   -0.85129E-08   -0.25279E-10    47   0.726E-05
  22 F= -.26106465E+03 E0= -.26106465E+03  d E =-.125143E-02
 trial-energy change:   -0.001251  1 .order   -0.001251   -0.001531   -0.000972
 step:   3.4082(harm=  3.4082)  dis= 0.00687  next Energy=  -261.065491 (dE=-0.210E-02)
 bond charge predicted
       N       E                     dE             d eps       ncg     rms          rms(c)
DAV:   1    -0.261064976267E+03   -0.33015E-03   -0.33641E-01   160   0.209E+00    0.180E-01
RMM:   2    -0.261065367568E+03   -0.39130E-03   -0.63931E-03   160   0.296E-01    0.738E-02
RMM:   3    -0.261065462582E+03   -0.95014E-04   -0.14830E-03   169   0.136E-01    0.545E-02
RMM:   4    -0.261065477791E+03   -0.15209E-04   -0.29581E-04   181   0.608E-02    0.333E-02
RMM:   5    -0.261065482512E+03   -0.47209E-05   -0.43195E-05   182   0.238E-02    0.123E-02
RMM:   6    -0.261065485184E+03   -0.26717E-05   -0.13189E-05   176   0.119E-02    0.435E-03
RMM:   7    -0.261065486046E+03   -0.86155E-06   -0.39819E-06   185   0.582E-03    0.368E-03
RMM:   8    -0.261065486537E+03   -0.49157E-06   -0.63240E-07   193   0.238E-03    0.221E-03
RMM:   9    -0.261065487126E+03   -0.58892E-06   -0.23641E-07   159   0.119E-03    0.525E-04
RMM:  10    -0.261065487651E+03   -0.52487E-06   -0.55828E-08   135   0.670E-04    0.405E-04
RMM:  11    -0.261065488053E+03   -0.40227E-06   -0.16114E-08   102   0.329E-04    0.185E-04
RMM:  12    -0.261065488515E+03   -0.46179E-06   -0.12644E-08   102   0.228E-04    0.905E-05
RMM:  13    -0.261065488975E+03   -0.45994E-06   -0.15633E-08   104   0.217E-04    0.109E-04
RMM:  14    -0.261065489321E+03   -0.34572E-06   -0.15634E-08   101   0.201E-04    0.818E-05
RMM:  15    -0.261065489462E+03   -0.14101E-06   -0.48340E-09    75   0.132E-04    0.674E-05
RMM:  16    -0.261065489533E+03   -0.71046E-07   -0.26410E-09    69   0.106E-04    0.654E-05
RMM:  17    -0.261065489602E+03   -0.68725E-07   -0.17630E-09    63   0.949E-05    0.658E-05
RMM:  18    -0.261065489628E+03   -0.26554E-07   -0.88672E-10    57   0.831E-05    0.649E-05
RMM:  19    -0.261065489644E+03   -0.15974E-07   -0.45103E-10    50   0.744E-05    0.646E-05
RMM:  20    -0.261065489650E+03   -0.56207E-08   -0.20984E-10    45   0.683E-05
  23 F= -.26106549E+03 E0= -.26106549E+03  d E =-.209496E-02
 curvature:  -7.05 expect dE=-0.894E-02 dE for cont linesearch -0.189E-08
 trial: gam= 1.02367 g(F)=  0.127E-02 g(S)=  0.000E+00 ort =-0.117E-05 (trialstep = 0.129E+01)
 search vector abs. value=  0.659E-02
 bond charge predicted
       N       E                     dE             d eps       ncg     rms          rms(c)
DAV:   1    -0.261066542929E+03   -0.10533E-02   -0.15047E-01   160   0.138E+00    0.124E-01
RMM:   2    -0.261066721775E+03   -0.17885E-03   -0.30670E-03   160   0.204E-01    0.505E-02
RMM:   3    -0.261066768727E+03   -0.46952E-04   -0.72954E-04   170   0.949E-02    0.394E-02
RMM:   4    -0.261066776391E+03   -0.76636E-05   -0.13615E-04   183   0.411E-02    0.251E-02
RMM:   5    -0.261066779193E+03   -0.28029E-05   -0.21424E-05   166   0.166E-02    0.655E-03
RMM:   6    -0.261066780491E+03   -0.12975E-05   -0.75906E-06   178   0.930E-03    0.364E-03
RMM:   7    -0.261066780674E+03   -0.18346E-06   -0.23531E-06   184   0.435E-03    0.289E-03
RMM:   8    -0.261066780839E+03   -0.16480E-06   -0.33240E-07   175   0.187E-03    0.120E-03
RMM:   9    -0.261066781141E+03   -0.30177E-06   -0.14511E-07   158   0.104E-03    0.343E-04
RMM:  10    -0.261066781277E+03   -0.13557E-06   -0.32362E-08   116   0.519E-04    0.176E-04
RMM:  11    -0.261066781488E+03   -0.21105E-06   -0.11745E-08    99   0.309E-04    0.158E-04
RMM:  12    -0.261066781595E+03   -0.10735E-06   -0.52876E-09    99   0.198E-04    0.912E-05
RMM:  13    -0.261066781847E+03   -0.25161E-06   -0.94540E-09   100   0.186E-04    0.853E-05
RMM:  14    -0.261066781929E+03   -0.82593E-07   -0.34414E-09    82   0.125E-04    0.811E-05
RMM:  15    -0.261066782038E+03   -0.10914E-06   -0.37274E-09    84   0.120E-04    0.670E-05
RMM:  16    -0.261066782073E+03   -0.34706E-07   -0.17580E-09    63   0.898E-05    0.654E-05
RMM:  17    -0.261066782113E+03   -0.39985E-07   -0.11087E-09    55   0.817E-05    0.648E-05
RMM:  18    -0.261066782127E+03   -0.14370E-07   -0.53785E-10    49   0.754E-05    0.646E-05
RMM:  19    -0.261066782140E+03   -0.12482E-07   -0.28512E-10    46   0.730E-05    0.646E-05
RMM:  20    -0.261066782146E+03   -0.65120E-08   -0.14257E-10    43   0.713E-05
  24 F= -.26106678E+03 E0= -.26106678E+03  d E =-.129250E-02
 trial-energy change:   -0.001292  1 .order   -0.001293   -0.001639   -0.000946
 step:   3.0579(harm=  3.0579)  dis= 0.00771  next Energy=  -261.067427 (dE=-0.194E-02)
 bond charge predicted
       N       E                     dE             d eps       ncg     rms          rms(c)
DAV:   1    -0.261066983351E+03   -0.20121E-03   -0.28004E-01   160   0.189E+00    0.170E-01
RMM:   2    -0.261067322444E+03   -0.33909E-03   -0.57101E-03   160   0.279E-01    0.690E-02
RMM:   3    -0.261067407145E+03   -0.84700E-04   -0.13583E-03   170   0.129E-01    0.537E-02
RMM:   4    -0.261067419938E+03   -0.12793E-04   -0.25363E-04   183   0.561E-02    0.344E-02
RMM:   5    -0.261067423686E+03   -0.37487E-05   -0.39817E-05   167   0.227E-02    0.911E-03
RMM:   6    -0.261067425783E+03   -0.20964E-05   -0.14159E-05   178   0.126E-02    0.495E-03
RMM:   7    -0.261067426081E+03   -0.29822E-06   -0.43120E-06   185   0.588E-03    0.392E-03
RMM:   8    -0.261067426372E+03   -0.29094E-06   -0.60267E-07   178   0.249E-03    0.161E-03
RMM:   9    -0.261067426854E+03   -0.48161E-06   -0.23466E-07   162   0.132E-03    0.509E-04
RMM:  10    -0.261067427105E+03   -0.25106E-06   -0.64156E-08   131   0.658E-04    0.212E-04
RMM:  11    -0.261067427426E+03   -0.32102E-06   -0.16663E-08   100   0.366E-04    0.203E-04
RMM:  12    -0.261067427613E+03   -0.18763E-06   -0.74560E-09    99   0.231E-04    0.998E-05
RMM:  13    -0.261067427990E+03   -0.37691E-06   -0.13740E-08   103   0.219E-04    0.836E-05
RMM:  14    -0.261067428157E+03   -0.16697E-06   -0.66303E-09    91   0.160E-04    0.947E-05
RMM:  15    -0.261067428328E+03   -0.17087E-06   -0.67121E-09    85   0.142E-04    0.684E-05
RMM:  16    -0.261067428372E+03   -0.43769E-07   -0.26445E-09    68   0.103E-04    0.665E-05
RMM:  17    -0.261067428431E+03   -0.59288E-07   -0.18090E-09    65   0.916E-05    0.655E-05
RMM:  18    -0.261067428453E+03   -0.22199E-07   -0.84253E-10    55   0.780E-05    0.650E-05
RMM:  19    -0.261067428472E+03   -0.18870E-07   -0.34953E-10    45   0.716E-05    0.647E-05
RMM:  20    -0.261067428485E+03   -0.12413E-07   -0.33655E-10    47   0.728E-05    0.647E-05
RMM:  21    -0.261067428488E+03   -0.34306E-08   -0.11704E-10    43   0.682E-05
  25 F= -.26106743E+03 E0= -.26106743E+03  d E =-.193884E-02
 curvature:  -7.96 expect dE=-0.805E-02 dE for cont linesearch -0.231E-10
 trial: gam= 0.79991 g(F)=  0.101E-02 g(S)=  0.000E+00 ort = 0.138E-06 (trialstep = 0.165E+01)
 search vector abs. value=  0.523E-02
 bond charge predicted
       N       E                     dE             d eps       ncg     rms          rms(c)
DAV:   1    -0.261068410909E+03   -0.98242E-03   -0.19084E-01   160   0.155E+00    0.149E-01
RMM:   2    -0.261068665056E+03   -0.25415E-03   -0.40955E-03   160   0.234E-01    0.562E-02
RMM:   3    -0.261068736464E+03   -0.71409E-04   -0.99466E-04   173   0.108E-01    0.496E-02
RMM:   4    -0.261068743105E+03   -0.66412E-05   -0.15908E-04   183   0.445E-02    0.314E-02
RMM:   5    -0.261068746163E+03   -0.30580E-05   -0.31076E-05   161   0.191E-02    0.878E-03
RMM:   6    -0.261068747895E+03   -0.17314E-05   -0.11351E-05   178   0.114E-02    0.600E-03
RMM:   7    -0.261068747845E+03    0.50244E-07   -0.26809E-06   182   0.500E-03    0.360E-03
RMM:   8    -0.261068748152E+03   -0.30741E-06   -0.49512E-07   186   0.217E-03    0.225E-03
RMM:   9    -0.261068748577E+03   -0.42548E-06   -0.35192E-07   161   0.144E-03    0.401E-04
RMM:  10    -0.261068748733E+03   -0.15557E-06   -0.47247E-08   125   0.727E-04    0.548E-04
RMM:  11    -0.261068749064E+03   -0.33137E-06   -0.35107E-08   113   0.445E-04    0.165E-04
RMM:  12    -0.261068749204E+03   -0.13988E-06   -0.10592E-08    99   0.280E-04    0.117E-04
RMM:  13    -0.261068749523E+03   -0.31833E-06   -0.11949E-08   101   0.224E-04    0.124E-04
RMM:  14    -0.261068749647E+03   -0.12399E-06   -0.51888E-09    94   0.156E-04    0.126E-04
RMM:  15    -0.261068749825E+03   -0.17886E-06   -0.81178E-09    86   0.147E-04    0.680E-05
RMM:  16    -0.261068749871E+03   -0.45475E-07   -0.24394E-09    72   0.105E-04    0.671E-05
RMM:  17    -0.261068749912E+03   -0.40687E-07   -0.14526E-09    62   0.870E-05    0.655E-05
RMM:  18    -0.261068749932E+03   -0.19951E-07   -0.73291E-10    55   0.766E-05    0.651E-05
RMM:  19    -0.261068749950E+03   -0.18812E-07   -0.39332E-10    48   0.717E-05    0.651E-05
RMM:  20    -0.261068749959E+03   -0.87166E-08   -0.26196E-10    46   0.699E-05
  26 F= -.26106875E+03 E0= -.26106875E+03  d E =-.132147E-02
 trial-energy change:   -0.001321  1 .order   -0.001322   -0.001666   -0.000977
 step:   3.9826(harm=  3.9826)  dis= 0.00978  next Energy=  -261.069443 (dE=-0.201E-02)
 bond charge predicted
       N       E                     dE             d eps       ncg     rms          rms(c)
DAV:   1    -0.261068759649E+03   -0.96985E-05   -0.38429E-01   160   0.220E+00    0.212E-01
RMM:   2    -0.261069281144E+03   -0.52149E-03   -0.82468E-03   160   0.332E-01    0.799E-02
RMM:   3    -0.261069422578E+03   -0.14143E-03   -0.20039E-03   173   0.154E-01    0.706E-02
RMM:   4    -0.261069434522E+03   -0.11944E-04   -0.32066E-04   183   0.632E-02    0.450E-02
RMM:   5    -0.261069438166E+03   -0.36433E-05   -0.62279E-05   162   0.271E-02    0.125E-02
RMM:   6    -0.261069441048E+03   -0.28820E-05   -0.23024E-05   179   0.161E-02    0.871E-03
RMM:   7    -0.261069440832E+03    0.21549E-06   -0.53824E-06   181   0.706E-03    0.509E-03
RMM:   8    -0.261069441421E+03   -0.58931E-06   -0.92176E-07   180   0.314E-03    0.322E-03
RMM:   9    -0.261069442173E+03   -0.75179E-06   -0.86372E-07   162   0.226E-03    0.573E-04
RMM:  10    -0.261069442431E+03   -0.25752E-06   -0.11627E-07   156   0.116E-03    0.769E-04
RMM:  11    -0.261069442965E+03   -0.53382E-06   -0.75607E-08   141   0.661E-04    0.293E-04
RMM:  12    -0.261069443191E+03   -0.22671E-06   -0.23271E-08   105   0.394E-04    0.173E-04
RMM:  13    -0.261069443769E+03   -0.57751E-06   -0.21045E-08   109   0.305E-04    0.165E-04
RMM:  14    -0.261069443941E+03   -0.17256E-06   -0.78107E-09   100   0.194E-04    0.174E-04
RMM:  15    -0.261069444308E+03   -0.36662E-06   -0.17740E-08   103   0.204E-04    0.756E-05
RMM:  16    -0.261069444382E+03   -0.74389E-07   -0.36844E-09    81   0.124E-04    0.720E-05
RMM:  17    -0.261069444464E+03   -0.81862E-07   -0.25780E-09    67   0.103E-04    0.695E-05
RMM:  18    -0.261069444493E+03   -0.29060E-07   -0.12546E-09    60   0.855E-05    0.659E-05
RMM:  19    -0.261069444525E+03   -0.31949E-07   -0.70219E-10    51   0.775E-05    0.655E-05
RMM:  20    -0.261069444544E+03   -0.18343E-07   -0.60979E-10    54   0.772E-05    0.653E-05
RMM:  21    -0.261069444549E+03   -0.54788E-08   -0.18375E-10    43   0.682E-05
  27 F= -.26106944E+03 E0= -.26106944E+03  d E =-.201606E-02
 curvature: -10.30 expect dE=-0.133E-01 dE for cont linesearch -0.122E-08
 trial: gam= 1.28244 g(F)=  0.129E-02 g(S)=  0.000E+00 ort = 0.788E-06 (trialstep = 0.112E+01)
 search vector abs. value=  0.990E-02
 bond charge predicted
       N       E                     dE             d eps       ncg     rms          rms(c)
DAV:   1    -0.261070368272E+03   -0.92373E-03   -0.16558E-01   160   0.143E+00    0.140E-01
RMM:   2    -0.261070604292E+03   -0.23602E-03   -0.36375E-03   160   0.219E-01    0.516E-02
RMM:   3    -0.261070672454E+03   -0.68162E-04   -0.87844E-04   171   0.102E-01    0.458E-02
RMM:   4    -0.261070679143E+03   -0.66889E-05   -0.15443E-04   183   0.434E-02    0.271E-02
RMM:   5    -0.261070681850E+03   -0.27070E-05   -0.24059E-05   168   0.173E-02    0.868E-03
RMM:   6    -0.261070683617E+03   -0.17675E-05   -0.86785E-06   177   0.976E-03    0.482E-03
RMM:   7    -0.261070683814E+03   -0.19714E-06   -0.32851E-06   173   0.517E-03    0.397E-03
RMM:   8    -0.261070684027E+03   -0.21268E-06   -0.47824E-07   182   0.235E-03    0.135E-03
RMM:   9    -0.261070684367E+03   -0.33980E-06   -0.14628E-07   149   0.110E-03    0.789E-04
RMM:  10    -0.261070684538E+03   -0.17149E-06   -0.59274E-08   130   0.610E-04    0.174E-04
RMM:  11    -0.261070684682E+03   -0.14410E-06   -0.12607E-08   101   0.322E-04    0.193E-04
RMM:  12    -0.261070684909E+03   -0.22710E-06   -0.92522E-09   100   0.231E-04    0.950E-05
RMM:  13    -0.261070685062E+03   -0.15296E-06   -0.55292E-09    93   0.163E-04    0.760E-05
RMM:  14    -0.261070685257E+03   -0.19465E-06   -0.10306E-08    96   0.163E-04    0.913E-05
RMM:  15    -0.261070685316E+03   -0.58604E-07   -0.25388E-09    75   0.109E-04    0.697E-05
RMM:  16    -0.261070685358E+03   -0.42332E-07   -0.18152E-09    65   0.946E-05    0.660E-05
RMM:  17    -0.261070685382E+03   -0.23967E-07   -0.85905E-10    55   0.813E-05    0.655E-05
RMM:  18    -0.261070685400E+03   -0.17637E-07   -0.45564E-10    47   0.755E-05    0.655E-05
RMM:  19    -0.261070685409E+03   -0.95824E-08   -0.30091E-10    46   0.743E-05
  28 F= -.26107069E+03 E0= -.26107069E+03  d E =-.124086E-02
 trial-energy change:   -0.001241  1 .order   -0.001241   -0.001447   -0.001034
 step:   3.9183(harm=  3.9183)  dis= 0.01411  next Energy=  -261.071983 (dE=-0.254E-02)
 bond charge predicted
       N       E                     dE             d eps       ncg     rms          rms(c)
DAV:   1    -0.261069982500E+03    0.70290E-03   -0.10417E+00   160   0.359E+00    0.357E-01
RMM:   2    -0.261071517688E+03   -0.15352E-02   -0.22915E-02   160   0.550E-01    0.130E-01
RMM:   3    -0.261071932996E+03   -0.41531E-03   -0.55329E-03   171   0.256E-01    0.116E-01
RMM:   4    -0.261071964377E+03   -0.31381E-04   -0.96848E-04   182   0.109E-01    0.701E-02
RMM:   5    -0.261071970517E+03   -0.61401E-05   -0.15170E-04   172   0.434E-02    0.241E-02
RMM:   6    -0.261071976836E+03   -0.63188E-05   -0.53571E-05   172   0.244E-02    0.120E-02
RMM:   7    -0.261071977978E+03   -0.11423E-05   -0.21538E-05   172   0.133E-02    0.105E-02
RMM:   8    -0.261071978949E+03   -0.97089E-06   -0.40139E-06   200   0.626E-03    0.620E-03
RMM:   9    -0.261071980096E+03   -0.11469E-05   -0.17121E-06   160   0.325E-03    0.195E-03
RMM:  10    -0.261071980993E+03   -0.89670E-06   -0.22558E-07   162   0.160E-03    0.995E-04
RMM:  11    -0.261071981518E+03   -0.52491E-06   -0.11903E-07   150   0.818E-04    0.364E-04
RMM:  12    -0.261071982399E+03   -0.88104E-06   -0.36970E-08   119   0.440E-04    0.254E-04
RMM:  13    -0.261071982868E+03   -0.46917E-06   -0.19092E-08   107   0.298E-04    0.171E-04
RMM:  14    -0.261071983877E+03   -0.10090E-05   -0.53907E-08   125   0.350E-04    0.106E-04
RMM:  15    -0.261071984047E+03   -0.17030E-06   -0.71675E-09    88   0.181E-04    0.118E-04
RMM:  16    -0.261071984335E+03   -0.28736E-06   -0.12111E-08    98   0.177E-04    0.833E-05
RMM:  17    -0.261071984386E+03   -0.51063E-07   -0.23419E-09    71   0.109E-04    0.725E-05
RMM:  18    -0.261071984482E+03   -0.96545E-07   -0.23282E-09    70   0.100E-04    0.695E-05
RMM:  19    -0.261071984519E+03   -0.36438E-07   -0.11230E-09    55   0.822E-05    0.665E-05
RMM:  20    -0.261071984556E+03   -0.37486E-07   -0.83375E-10    53   0.794E-05    0.660E-05
RMM:  21    -0.261071984569E+03   -0.12300E-07   -0.42961E-10    49   0.742E-05    0.657E-05
RMM:  22    -0.261071984576E+03   -0.75488E-08   -0.10560E-10    42   0.681E-05
  29 F= -.26107198E+03 E0= -.26107198E+03  d E =-.254003E-02
 curvature: -14.97 expect dE=-0.280E-01 dE for cont linesearch -0.882E-09
 trial: gam= 1.44711 g(F)=  0.187E-02 g(S)=  0.000E+00 ort = 0.764E-06 (trialstep = 0.734E+00)
 search vector abs. value=  0.226E-01
 bond charge predicted
       N       E                     dE             d eps       ncg     rms          rms(c)
DAV:   1    -0.261072899923E+03   -0.91535E-03   -0.15806E-01   160   0.139E+00    0.137E-01
RMM:   2    -0.261073136503E+03   -0.23658E-03   -0.35919E-03   160   0.216E-01    0.500E-02
RMM:   3    -0.261073208335E+03   -0.71831E-04   -0.88479E-04   171   0.101E-01    0.469E-02
RMM:   4    -0.261073213974E+03   -0.56395E-05   -0.14624E-04   180   0.427E-02    0.256E-02
RMM:   5    -0.261073217398E+03   -0.34242E-05   -0.26957E-05   165   0.178E-02    0.855E-03
RMM:   6    -0.261073218560E+03   -0.11613E-05   -0.83732E-06   177   0.976E-03    0.468E-03
RMM:   7    -0.261073218795E+03   -0.23507E-06   -0.28311E-06   176   0.485E-03    0.426E-03
RMM:   8    -0.261073219024E+03   -0.22954E-06   -0.49474E-07   167   0.231E-03    0.115E-03
RMM:   9    -0.261073219311E+03   -0.28678E-06   -0.17647E-07   167   0.125E-03    0.884E-04
RMM:  10    -0.261073219473E+03   -0.16206E-06   -0.91930E-08   144   0.754E-04    0.372E-04
RMM:  11    -0.261073219627E+03   -0.15426E-06   -0.16258E-08   101   0.412E-04    0.125E-04
RMM:  12    -0.261073219750E+03   -0.12230E-06   -0.67399E-09    98   0.236E-04    0.800E-05
RMM:  13    -0.261073219881E+03   -0.13153E-06   -0.49164E-09    96   0.169E-04    0.843E-05
RMM:  14    -0.261073220034E+03   -0.15273E-06   -0.72452E-09    91   0.147E-04    0.943E-05
RMM:  15    -0.261073220092E+03   -0.57556E-07   -0.22794E-09    75   0.108E-04    0.691E-05
RMM:  16    -0.261073220154E+03   -0.62693E-07   -0.28723E-09    78   0.105E-04    0.709E-05
RMM:  17    -0.261073220172E+03   -0.17913E-07   -0.98600E-10    53   0.773E-05    0.659E-05
RMM:  18    -0.261073220189E+03   -0.16542E-07   -0.61295E-10    50   0.739E-05    0.658E-05
RMM:  19    -0.261073220196E+03   -0.76034E-08   -0.17355E-10    41   0.692E-05
  30 F= -.26107322E+03 E0= -.26107322E+03  d E =-.123562E-02
 ZBRENT: can't locate minimum, use default step
 trial-energy change:   -0.001236  1 .order   -0.001236   -0.001376   -0.001095
 step:   2.9378(harm=  3.5928)  dis= 0.01648  next Energy=  -261.075351 (dE=-0.337E-02)
 bond charge predicted
       N       E                     dE             d eps       ncg     rms          rms(c)
DAV:   1    -0.261072349080E+03    0.87111E-03   -0.14223E+00   160   0.417E+00    0.421E-01
RMM:   2    -0.261074554161E+03   -0.22051E-02   -0.32372E-02   160   0.649E-01    0.151E-01
RMM:   3    -0.261075177216E+03   -0.62306E-03   -0.79725E-03   171   0.304E-01    0.141E-01
RMM:   4    -0.261075211391E+03   -0.34175E-04   -0.13107E-03   179   0.128E-01    0.795E-02
RMM:   5    -0.261075222989E+03   -0.11598E-04   -0.23385E-04   167   0.532E-02    0.266E-02
RMM:   6    -0.261075229289E+03   -0.63005E-05   -0.78210E-05   177   0.293E-02    0.143E-02
RMM:   7    -0.261075231259E+03   -0.19696E-05   -0.28663E-05   175   0.152E-02    0.135E-02
RMM:   8    -0.261075232252E+03   -0.99335E-06   -0.42349E-06   176   0.693E-03    0.395E-03
RMM:   9    -0.261075234076E+03   -0.18243E-05   -0.15734E-06   165   0.357E-03    0.250E-03
RMM:  10    -0.261075234947E+03   -0.87022E-06   -0.47368E-07   176   0.186E-03    0.436E-04
RMM:  11    -0.261075236051E+03   -0.11044E-05   -0.16255E-07   166   0.970E-04    0.489E-04
RMM:  12    -0.261075236446E+03   -0.39511E-06   -0.29523E-08   114   0.447E-04    0.173E-04
RMM:  13    -0.261075237533E+03   -0.10869E-05   -0.40586E-08   119   0.381E-04    0.249E-04
RMM:  14    -0.261075237774E+03   -0.24106E-06   -0.95655E-09   101   0.206E-04    0.162E-04
RMM:  15    -0.261075238406E+03   -0.63169E-06   -0.32688E-08   114   0.268E-04    0.962E-05
RMM:  16    -0.261075238572E+03   -0.16608E-06   -0.51816E-09    80   0.143E-04    0.101E-04
RMM:  17    -0.261075238719E+03   -0.14759E-06   -0.55708E-09    77   0.133E-04    0.696E-05
RMM:  18    -0.261075238791E+03   -0.71843E-07   -0.28703E-09    70   0.106E-04    0.678E-05
RMM:  19    -0.261075238840E+03   -0.48421E-07   -0.18282E-09    62   0.900E-05    0.668E-05
RMM:  20    -0.261075238865E+03   -0.24967E-07   -0.86574E-10    52   0.765E-05    0.667E-05
RMM:  21    -0.261075238876E+03   -0.11725E-07   -0.41211E-10    48   0.716E-05    0.664E-05
RMM:  22    -0.261075238883E+03   -0.63301E-08   -0.61924E-11    39   0.663E-05
  31 F= -.26107524E+03 E0= -.26107524E+03  d E =-.325431E-02
 curvature: -20.53 expect dE=-0.321E-01 dE for cont linesearch -0.106E-03
 ZBRENT: extrapolating
 opt :   3.5921  next Energy=  -261.075351 (dE=-0.337E-02)
 bond charge predicted
       N       E                     dE             d eps       ncg     rms          rms(c)
DAV:   1    -0.261075096513E+03    0.14236E-03   -0.12545E-01   160   0.124E+00    0.122E-01
RMM:   2    -0.261075283118E+03   -0.18661E-03   -0.28488E-03   160   0.193E-01    0.445E-02
RMM:   3    -0.261075340413E+03   -0.57295E-04   -0.70153E-04   171   0.901E-02    0.417E-02
RMM:   4    -0.261075345082E+03   -0.46692E-05   -0.11518E-04   179   0.381E-02    0.228E-02
RMM:   5    -0.261075348107E+03   -0.30252E-05   -0.21864E-05   165   0.161E-02    0.758E-03
RMM:   6    -0.261075349148E+03   -0.10402E-05   -0.68931E-06   178   0.878E-03    0.419E-03
RMM:   7    -0.261075349335E+03   -0.18716E-06   -0.22249E-06   179   0.429E-03    0.379E-03
RMM:   8    -0.261075349528E+03   -0.19288E-06   -0.37681E-07   166   0.198E-03    0.108E-03
RMM:   9    -0.261075349762E+03   -0.23479E-06   -0.13339E-07   158   0.109E-03    0.840E-04
RMM:  10    -0.261075349896E+03   -0.13350E-06   -0.74858E-08   140   0.681E-04    0.340E-04
RMM:  11    -0.261075350023E+03   -0.12703E-06   -0.13180E-08   100   0.371E-04    0.118E-04
RMM:  12    -0.261075350127E+03   -0.10450E-06   -0.56363E-09    98   0.216E-04    0.771E-05
RMM:  13    -0.261075350241E+03   -0.11310E-06   -0.41926E-09    92   0.156E-04    0.835E-05
RMM:  14    -0.261075350364E+03   -0.12334E-06   -0.52459E-09    88   0.136E-04    0.879E-05
RMM:  15    -0.261075350417E+03   -0.53427E-07   -0.23747E-09    68   0.105E-04    0.709E-05
RMM:  16    -0.261075350465E+03   -0.47898E-07   -0.25040E-09    72   0.102E-04    0.705E-05
RMM:  17    -0.261075350481E+03   -0.15752E-07   -0.95259E-10    56   0.800E-05    0.670E-05
RMM:  18    -0.261075350494E+03   -0.13450E-07   -0.59590E-10    51   0.740E-05    0.666E-05
RMM:  19    -0.261075350500E+03   -0.54060E-08   -0.17444E-10    44   0.677E-05
  32 F= -.26107535E+03 E0= -.26107535E+03  d E =-.336592E-02
 curvature: -21.67 expect dE=-0.484E-01 dE for cont linesearch -0.478E-09
 trial: gam= 1.18506 g(F)=  0.223E-02 g(S)=  0.000E+00 ort =-0.706E-06 (trialstep = 0.869E+00)
 search vector abs. value=  0.340E-01
 bond charge predicted
       N       E                     dE             d eps       ncg     rms          rms(c)
DAV:   1    -0.261076384320E+03   -0.10338E-02   -0.31990E-01   160   0.196E+00    0.189E-01
RMM:   2    -0.261076885653E+03   -0.50133E-03   -0.74825E-03   160   0.310E-01    0.697E-02
RMM:   3    -0.261077045552E+03   -0.15990E-03   -0.19075E-03   172   0.146E-01    0.702E-02
RMM:   4    -0.261077052869E+03   -0.73179E-05   -0.29646E-04   177   0.611E-02    0.339E-02
RMM:   5    -0.261077060478E+03   -0.76084E-05   -0.67634E-05   162   0.276E-02    0.161E-02
RMM:   6    -0.261077060536E+03   -0.57757E-07   -0.22147E-05   178   0.154E-02    0.741E-03
RMM:   7    -0.261077060798E+03   -0.26263E-06   -0.70810E-06   183   0.751E-03    0.659E-03
RMM:   8    -0.261077061392E+03   -0.59414E-06   -0.17334E-06   160   0.383E-03    0.400E-03
RMM:   9    -0.261077061799E+03   -0.40683E-06   -0.61847E-07   166   0.229E-03    0.160E-03
RMM:  10    -0.261077061979E+03   -0.17941E-06   -0.41013E-07   168   0.156E-03    0.573E-04
RMM:  11    -0.261077062219E+03   -0.24042E-06   -0.71747E-08   145   0.853E-04    0.416E-04
RMM:  12    -0.261077062444E+03   -0.22542E-06   -0.24919E-08   108   0.409E-04    0.157E-04
RMM:  13    -0.261077062680E+03   -0.23553E-06   -0.94857E-09   100   0.254E-04    0.932E-05
RMM:  14    -0.261077062928E+03   -0.24827E-06   -0.99778E-09    99   0.200E-04    0.135E-04
RMM:  15    -0.261077063037E+03   -0.10896E-06   -0.42913E-09    90   0.143E-04    0.848E-05
RMM:  16    -0.261077063206E+03   -0.16887E-06   -0.89917E-09    91   0.149E-04    0.747E-05
RMM:  17    -0.261077063244E+03   -0.37540E-07   -0.18351E-09    61   0.944E-05    0.696E-05
RMM:  18    -0.261077063290E+03   -0.46333E-07   -0.16467E-09    69   0.926E-05    0.681E-05
RMM:  19    -0.261077063304E+03   -0.13628E-07   -0.57671E-10    49   0.746E-05    0.696E-05
RMM:  20    -0.261077063322E+03   -0.18310E-07   -0.39680E-10    48   0.738E-05    0.670E-05
RMM:  21    -0.261077063329E+03   -0.68976E-08   -0.26880E-10    46   0.716E-05
  33 F= -.26107706E+03 E0= -.26107706E+03  d E =-.171283E-02
 ZBRENT: can't locate minimum, use default step
 trial-energy change:   -0.001713  1 .order   -0.001712   -0.001939   -0.001486
 step:   3.4756(harm=  3.7153)  dis= 0.02431  next Energy=  -261.079496 (dE=-0.415E-02)
 bond charge predicted
[...]
DAV:   1    -0.261119089396E+03    0.27128E-06   -0.95220E-04   160   0.110E-01    0.980E-03
RMM:   2    -0.261119089759E+03   -0.36318E-06   -0.14845E-05   160   0.143E-02    0.445E-03
RMM:   3    -0.261119090151E+03   -0.39199E-06   -0.33860E-06   167   0.651E-03    0.257E-03
RMM:   4    -0.261119090331E+03   -0.17955E-06   -0.70475E-07   180   0.298E-03    0.189E-03
RMM:   5    -0.261119090355E+03   -0.24796E-07   -0.10626E-07   155   0.114E-03    0.130E-03
RMM:   6    -0.261119090403E+03   -0.47305E-07   -0.36153E-08   117   0.617E-04    0.601E-04
RMM:   7    -0.261119090411E+03   -0.84910E-08   -0.68494E-09    99   0.306E-04
 457 F= -.26111909E+03 E0= -.26111909E+03  d E =-.736094E-06
 trial-energy change:   -0.000001  1 .order   -0.000001   -0.000001   -0.000000
 step:   3.9568(harm=  3.9568)  dis= 0.00032  next Energy=  -261.119090 (dE=-0.808E-06)
 bond charge predicted
       N       E                     dE             d eps       ncg     rms          rms(c)
DAV:   1    -0.261119090294E+03    0.10903E-06   -0.16754E-04   176   0.463E-02    0.407E-03
RMM:   2    -0.261119090338E+03   -0.44514E-07   -0.26412E-06   160   0.601E-03    0.184E-03
RMM:   3    -0.261119090430E+03   -0.92154E-07   -0.60545E-07   168   0.274E-03    0.110E-03
RMM:   4    -0.261119090473E+03   -0.42390E-07   -0.12178E-07   162   0.125E-03    0.800E-04
RMM:   5    -0.261119090481E+03   -0.84183E-08   -0.17671E-08   103   0.501E-04
 458 F= -.26111909E+03 E0= -.26111909E+03  d E =-.806045E-06
 curvature: -50.98 expect dE=-0.249E-04 dE for cont linesearch -0.272E-09
 trial: gam= 1.18409 g(F)=  0.489E-06 g(S)=  0.000E+00 ort =-0.749E-08 (trialstep = 0.209E+01)
 search vector abs. value=  0.152E-04
 bond charge predicted
       N       E                     dE             d eps       ncg     rms          rms(c)
DAV:   1    -0.261119090324E+03    0.14859E-06   -0.79405E-04   160   0.101E-01    0.895E-03
RMM:   2    -0.261119090559E+03   -0.23488E-06   -0.12057E-05   160   0.129E-02    0.406E-03
RMM:   3    -0.261119090900E+03   -0.34103E-06   -0.28130E-06   168   0.589E-03    0.227E-03
RMM:   4    -0.261119091048E+03   -0.14804E-06   -0.55640E-07   177   0.268E-03    0.172E-03
RMM:   5    -0.261119091063E+03   -0.14734E-07   -0.93970E-08   151   0.106E-03    0.138E-03
RMM:   6    -0.261119091110E+03   -0.47334E-07   -0.33948E-08   115   0.571E-04    0.793E-04
RMM:   7    -0.261119091120E+03   -0.94078E-08   -0.66062E-09    99   0.295E-04
 459 F= -.26111909E+03 E0= -.26111909E+03  d E =-.638414E-06
 trial-energy change:   -0.000001  1 .order   -0.000001   -0.000001   -0.000000
 step:   2.9131(harm=  2.9131)  dis= 0.00027  next Energy=  -261.119091 (dE=-0.699E-06)
 bond charge predicted
       N       E                     dE             d eps       ncg     rms          rms(c)
DAV:   1    -0.261119091035E+03    0.75506E-07   -0.12400E-04   176   0.399E-02    0.352E-03
RMM:   2    -0.261119091057E+03   -0.22723E-07   -0.19157E-06   160   0.513E-03    0.158E-03
RMM:   3    -0.261119091130E+03   -0.72607E-07   -0.44988E-07   169   0.234E-03    0.920E-04
RMM:   4    -0.261119091163E+03   -0.32647E-07   -0.85965E-08   150   0.106E-03    0.687E-04
RMM:   5    -0.261119091168E+03   -0.51914E-08   -0.12893E-08   100   0.425E-04
 460 F= -.26111909E+03 E0= -.26111909E+03  d E =-.686668E-06
 curvature: -46.26 expect dE=-0.170E-04 dE for cont linesearch -0.111E-08
 trial: gam= 0.75675 g(F)=  0.367E-06 g(S)=  0.000E+00 ort =-0.192E-07 (trialstep = 0.225E+01)
 search vector abs. value=  0.906E-05
 bond charge predicted
       N       E                     dE             d eps       ncg     rms          rms(c)
DAV:   1    -0.261119091185E+03   -0.22617E-07   -0.53428E-04   176   0.829E-02    0.703E-03
RMM:   2    -0.261119091310E+03   -0.12420E-06   -0.82357E-06   160   0.107E-02    0.330E-03
RMM:   3    -0.261119091561E+03   -0.25096E-06   -0.19549E-06   169   0.490E-03    0.189E-03
RMM:   4    -0.261119091668E+03   -0.10744E-06   -0.38185E-07   176   0.221E-03    0.130E-03
RMM:   5    -0.261119091687E+03   -0.19427E-07   -0.58773E-08   132   0.871E-04    0.838E-04
RMM:   6    -0.261119091717E+03   -0.29799E-07   -0.18301E-08   101   0.461E-04    0.244E-04
RMM:   7    -0.261119091722E+03   -0.51186E-08   -0.44636E-09    99   0.248E-04
 461 F= -.26111909E+03 E0= -.26111909E+03  d E =-.554373E-06
 trial-energy change:   -0.000001  1 .order   -0.000001   -0.000001   -0.000000
 step:   3.5736(harm=  3.5736)  dis= 0.00027  next Energy=  -261.119092 (dE=-0.629E-06)
 bond charge predicted
       N       E                     dE             d eps       ncg     rms          rms(c)
DAV:   1    -0.261119091613E+03    0.10433E-06   -0.18372E-04   160   0.486E-02    0.400E-03
RMM:   2    -0.261119091645E+03   -0.31760E-07   -0.28489E-06   160   0.627E-03    0.189E-03
RMM:   3    -0.261119091743E+03   -0.98851E-07   -0.66556E-07   169   0.286E-03    0.116E-03
RMM:   4    -0.261119091788E+03   -0.44183E-07   -0.12867E-07   165   0.129E-03    0.776E-04
RMM:   5    -0.261119091799E+03   -0.11132E-07   -0.18804E-08   105   0.515E-04    0.444E-04
RMM:   6    -0.261119091812E+03   -0.13515E-07   -0.67785E-09    99   0.284E-04    0.121E-04
RMM:   7    -0.261119091816E+03   -0.37253E-08   -0.20445E-09    99   0.164E-04
 462 F= -.26111909E+03 E0= -.26111909E+03  d E =-.648091E-06
 curvature: -45.96 expect dE=-0.172E-04 dE for cont linesearch -0.845E-10
 trial: gam= 0.97796 g(F)=  0.375E-06 g(S)=  0.000E+00 ort =-0.408E-08 (trialstep = 0.252E+01)
 search vector abs. value=  0.903E-05
 bond charge predicted
       N       E                     dE             d eps       ncg     rms          rms(c)
DAV:   1    -0.261119091724E+03    0.88516E-07   -0.64032E-04   160   0.902E-02    0.723E-03
RMM:   2    -0.261119091938E+03   -0.21411E-06   -0.10186E-05   160   0.118E-02    0.352E-03
RMM:   3    -0.261119092235E+03   -0.29737E-06   -0.23992E-06   168   0.543E-03    0.222E-03
RMM:   4    -0.261119092363E+03   -0.12802E-06   -0.48729E-07   180   0.246E-03    0.145E-03
RMM:   5    -0.261119092399E+03   -0.35805E-07   -0.66516E-08   139   0.943E-04    0.653E-04
RMM:   6    -0.261119092421E+03   -0.21479E-07   -0.19014E-08   104   0.482E-04    0.163E-04
RMM:   7    -0.261119092428E+03   -0.70868E-08   -0.48840E-09    99   0.254E-04
 463 F= -.26111909E+03 E0= -.26111909E+03  d E =-.611632E-06
 trial-energy change:   -0.000001  1 .order   -0.000001   -0.000001   -0.000000
 step:   3.6272(harm=  3.6272)  dis= 0.00028  next Energy=  -261.119092 (dE=-0.673E-06)
 bond charge predicted
       N       E                     dE             d eps       ncg     rms          rms(c)
DAV:   1    -0.261119092363E+03    0.57647E-07   -0.12453E-04   192   0.398E-02    0.316E-03
RMM:   2    -0.261119092388E+03   -0.24855E-07   -0.19863E-06   160   0.522E-03    0.154E-03
RMM:   3    -0.261119092460E+03   -0.72643E-07   -0.46652E-07   168   0.240E-03    0.100E-03
RMM:   4    -0.261119092493E+03   -0.32491E-07   -0.93099E-08   153   0.109E-03    0.639E-04
RMM:   5    -0.261119092504E+03   -0.11078E-07   -0.13396E-08    99   0.437E-04    0.271E-04
RMM:   6    -0.261119092512E+03   -0.82327E-08   -0.44328E-09    99   0.238E-04
 464 F= -.26111909E+03 E0= -.26111909E+03  d E =-.696196E-06
 curvature: -44.14 expect dE=-0.150E-04 dE for cont linesearch -0.110E-08
 trial: gam= 0.89588 g(F)=  0.340E-06 g(S)=  0.000E+00 ort = 0.150E-07 (trialstep = 0.274E+01)
 search vector abs. value=  0.762E-05
 bond charge predicted
       N       E                     dE             d eps       ncg     rms          rms(c)
DAV:   1    -0.261119092291E+03    0.21272E-06   -0.64476E-04   160   0.904E-02    0.819E-03
RMM:   2    -0.261119092530E+03   -0.23851E-06   -0.10584E-05   160   0.120E-02    0.369E-03
RMM:   3    -0.261119092828E+03   -0.29788E-06   -0.25164E-06   169   0.551E-03    0.227E-03
RMM:   4    -0.261119092953E+03   -0.12582E-06   -0.48626E-07   177   0.248E-03    0.158E-03
RMM:   5    -0.261119092978E+03   -0.24938E-07   -0.70751E-08   140   0.960E-04    0.950E-04
RMM:   6    -0.261119093013E+03   -0.34270E-07   -0.23478E-08   107   0.515E-04    0.323E-04
RMM:   7    -0.261119093019E+03   -0.62719E-08   -0.51724E-09    99   0.266E-04
 465 F= -.26111909E+03 E0= -.26111909E+03  d E =-.506749E-06
 trial-energy change:   -0.000001  1 .order   -0.000001   -0.000001   -0.000000
 step:   2.9508(harm=  2.9508)  dis= 0.00021  next Energy=  -261.119093 (dE=-0.522E-06)
 bond charge predicted
       N       E                     dE             d eps       ncg     rms          rms(c)
DAV:   1    -0.261119093021E+03   -0.80654E-08   -0.38532E-06   160   0.699E-03    0.602E-04
RMM:   2    -0.261119093026E+03   -0.49185E-08   -0.66903E-08   149   0.958E-04
 466 F= -.26111909E+03 E0= -.26111909E+03  d E =-.513461E-06
 curvature: -31.77 expect dE=-0.807E-05 dE for cont linesearch -0.384E-08
 trial: gam= 0.80106 g(F)=  0.254E-06 g(S)=  0.000E+00 ort =-0.303E-07 (trialstep = 0.278E+01)
 search vector abs. value=  0.509E-05
 bond charge predicted
       N       E                     dE             d eps       ncg     rms          rms(c)
DAV:   1    -0.261119093002E+03    0.19132E-07   -0.44009E-04   160   0.751E-02    0.688E-03
RMM:   2    -0.261119093098E+03   -0.96130E-07   -0.69588E-06   160   0.981E-03    0.316E-03
RMM:   3    -0.261119093313E+03   -0.21484E-06   -0.15839E-06   168   0.445E-03    0.187E-03
RMM:   4    -0.261119093414E+03   -0.10172E-06   -0.31792E-07   174   0.202E-03    0.133E-03
RMM:   5    -0.261119093432E+03   -0.17641E-07   -0.47432E-08   124   0.803E-04    0.820E-04
RMM:   6    -0.261119093460E+03   -0.27921E-07   -0.16706E-08   101   0.442E-04    0.336E-04
RMM:   7    -0.261119093464E+03   -0.44492E-08   -0.42272E-09    99   0.239E-04
 467 F= -.26111909E+03 E0= -.26111909E+03  d E =-.438649E-06
 trial-energy change:   -0.000000  1 .order   -0.000000   -0.000001   -0.000000
 step:   3.1732(harm=  3.4660)  dis= 0.00018  next Energy=  -261.119093 (dE=-0.448E-06)
 bond charge predicted
       N       E                     dE             d eps       ncg     rms          rms(c)
DAV:   1    -0.261119093469E+03   -0.88658E-08   -0.87303E-06   192   0.106E-02    0.926E-04
RMM:   2    -0.261119093473E+03   -0.45075E-08   -0.14189E-07   159   0.140E-03    0.417E-04
RMM:   3    -0.261119093482E+03   -0.92041E-08   -0.32525E-08   117   0.639E-04
 468 F= -.26111909E+03 E0= -.26111909E+03  d E =-.456777E-06
 curvature: -31.40 expect dE=-0.856E-05 dE for cont linesearch -0.661E-09
 trial: gam= 0.97841 g(F)=  0.273E-06 g(S)=  0.000E+00 ort =-0.104E-07 (trialstep = 0.284E+01)
 search vector abs. value=  0.513E-05
 bond charge predicted
       N       E                     dE             d eps       ncg     rms          rms(c)
DAV:   1    -0.261119093542E+03   -0.69136E-07   -0.46140E-04   160   0.771E-02    0.645E-03
RMM:   2    -0.261119093643E+03   -0.10018E-06   -0.70749E-06   160   0.995E-03    0.310E-03
RMM:   3    -0.261119093862E+03   -0.21907E-06   -0.16425E-06   169   0.454E-03    0.184E-03
RMM:   4    -0.261119093961E+03   -0.99240E-07   -0.32579E-07   174   0.206E-03    0.136E-03
RMM:   5    -0.261119093974E+03   -0.12857E-07   -0.52949E-08   130   0.831E-04    0.101E-03
RMM:   6    -0.261119094004E+03   -0.30213E-07   -0.19646E-08   107   0.456E-04    0.456E-04
RMM:   7    -0.261119094009E+03   -0.48713E-08   -0.41616E-09    99   0.240E-04
 469 F= -.26111909E+03 E0= -.26111909E+03  d E =-.526361E-06
 trial-energy change:   -0.000001  1 .order   -0.000000   -0.000001   -0.000000
 step:   4.1236(harm=  4.1236)  dis= 0.00024  next Energy=  -261.119094 (dE=-0.542E-06)
 bond charge predicted
       N       E                     dE             d eps       ncg     rms          rms(c)
DAV:   1    -0.261119093924E+03    0.79439E-07   -0.94102E-05   192   0.348E-02    0.292E-03
RMM:   2    -0.261119093939E+03   -0.14697E-07   -0.14551E-06   160   0.450E-03    0.137E-03
RMM:   3    -0.261119093994E+03   -0.55217E-07   -0.34058E-07   170   0.205E-03    0.831E-04
RMM:   4    -0.261119094019E+03   -0.24840E-07   -0.63435E-08   138   0.921E-04    0.608E-04
RMM:   5    -0.261119094025E+03   -0.57989E-08   -0.10173E-08    99   0.380E-04
 470 F= -.26111909E+03 E0= -.26111909E+03  d E =-.542605E-06
 curvature: -40.26 expect dE=-0.113E-04 dE for cont linesearch -0.268E-08
 trial: gam= 1.24567 g(F)=  0.281E-06 g(S)=  0.000E+00 ort =-0.185E-07 (trialstep = 0.194E+01)
 search vector abs. value=  0.819E-05
 bond charge predicted
       N       E                     dE             d eps       ncg     rms          rms(c)
DAV:   1    -0.261119094054E+03   -0.35147E-07   -0.33029E-04   160   0.652E-02    0.538E-03
RMM:   2    -0.261119094102E+03   -0.47290E-07   -0.50323E-06   160   0.834E-03    0.261E-03
RMM:   3    -0.261119094276E+03   -0.17473E-06   -0.12177E-06   169   0.384E-03    0.148E-03
RMM:   4    -0.261119094349E+03   -0.72894E-07   -0.23975E-07   175   0.174E-03    0.110E-03
RMM:   5    -0.261119094357E+03   -0.78580E-08   -0.33849E-08   118   0.682E-04
 471 F= -.26111909E+03 E0= -.26111909E+03  d E =-.332118E-06
 trial-energy change:   -0.000000  1 .order   -0.000000   -0.000001   -0.000000
 step:   3.1855(harm=  3.1855)  dis= 0.00024  next Energy=  -261.119094 (dE=-0.411E-06)
 bond charge predicted
       N       E                     dE             d eps       ncg     rms          rms(c)
DAV:   1    -0.261119094307E+03    0.42015E-07   -0.13587E-04   160   0.419E-02    0.360E-03
RMM:   2    -0.261119094308E+03   -0.90222E-09   -0.20672E-06   160   0.534E-03    0.172E-03
RMM:   3    -0.261119094395E+03   -0.87213E-07   -0.52349E-07   169   0.249E-03    0.901E-04
RMM:   4    -0.261119094429E+03   -0.33495E-07   -0.10044E-07   159   0.113E-03    0.714E-04
RMM:   5    -0.261119094432E+03   -0.29504E-08   -0.14017E-08    99   0.454E-04
 472 F= -.26111909E+03 E0= -.26111909E+03  d E =-.406806E-06
 curvature: -50.57 expect dE=-0.146E-04 dE for cont linesearch -0.911E-09
 trial: gam= 0.84274 g(F)=  0.289E-06 g(S)=  0.000E+00 ort =-0.122E-07 (trialstep = 0.219E+01)
 search vector abs. value=  0.609E-05
 bond charge predicted
       N       E                     dE             d eps       ncg     rms          rms(c)
DAV:   1    -0.261119094576E+03   -0.14696E-06   -0.30890E-04   160   0.631E-02    0.552E-03
RMM:   2    -0.261119094584E+03   -0.80036E-08   -0.46287E-06   160   0.800E-03    0.264E-03
RMM:   3    -0.261119094755E+03   -0.17082E-06   -0.11454E-06   169   0.371E-03    0.137E-03
RMM:   4    -0.261119094822E+03   -0.67132E-07   -0.22347E-07   175   0.168E-03    0.106E-03
RMM:   5    -0.261119094827E+03   -0.50823E-08   -0.31026E-08   113   0.660E-04
 473 F= -.26111909E+03 E0= -.26111909E+03  d E =-.395048E-06
 trial-energy change:   -0.000000  1 .order   -0.000000   -0.000001   -0.000000
 step:   3.3187(harm=  3.3187)  dis= 0.00021  next Energy=  -261.119095 (dE=-0.463E-06)
 bond charge predicted
       N       E                     dE             d eps       ncg     rms          rms(c)
DAV:   1    -0.261119094831E+03   -0.87566E-08   -0.82027E-05   160   0.326E-02    0.297E-03
RMM:   2    -0.261119094814E+03    0.16287E-07   -0.12319E-06   160   0.412E-03    0.141E-03
RMM:   3    -0.261119094874E+03   -0.59921E-07   -0.32097E-07   169   0.194E-03    0.679E-04
RMM:   4    -0.261119094896E+03   -0.21544E-07   -0.60196E-08   137   0.880E-04    0.527E-04
RMM:   5    -0.261119094899E+03   -0.34670E-08   -0.89293E-09    99   0.359E-04
 474 F= -.26111909E+03 E0= -.26111909E+03  d E =-.467367E-06
 curvature: -36.21 expect dE=-0.947E-05 dE for cont linesearch -0.326E-09
 trial: gam= 0.92634 g(F)=  0.261E-06 g(S)=  0.000E+00 ort =-0.741E-08 (trialstep = 0.241E+01)
 search vector abs. value=  0.547E-05
 bond charge predicted
       N       E                     dE             d eps       ncg     rms          rms(c)
DAV:   1    -0.261119094995E+03   -0.99160E-07   -0.34513E-04   176   0.667E-02    0.617E-03
RMM:   2    -0.261119095031E+03   -0.35947E-07   -0.51112E-06   160   0.844E-03    0.279E-03
RMM:   3    -0.261119095201E+03   -0.17048E-06   -0.12225E-06   169   0.387E-03    0.148E-03
RMM:   4    -0.261119095277E+03   -0.75433E-07   -0.24398E-07   175   0.176E-03    0.106E-03
RMM:   5    -0.261119095288E+03   -0.11711E-07   -0.34744E-08   119   0.691E-04    0.692E-04
RMM:   6    -0.261119095308E+03   -0.19096E-07   -0.11590E-08    99   0.365E-04    0.208E-04
RMM:   7    -0.261119095311E+03   -0.36416E-08   -0.28769E-09    99   0.200E-04
 475 F= -.26111910E+03 E0= -.26111910E+03  d E =-.411997E-06
 trial-energy change:   -0.000000  1 .order   -0.000000   -0.000001   -0.000000
 step:   3.5877(harm=  3.5877)  dis= 0.00022  next Energy=  -261.119095 (dE=-0.457E-06)
 bond charge predicted
       N       E                     dE             d eps       ncg     rms          rms(c)
DAV:   1    -0.261119095280E+03    0.27576E-07   -0.81702E-05   176   0.324E-02    0.293E-03
RMM:   2    -0.261119095281E+03   -0.86220E-09   -0.12188E-06   160   0.412E-03    0.133E-03
RMM:   3    -0.261119095329E+03   -0.48094E-07   -0.28637E-07   169   0.188E-03    0.751E-04
RMM:   4    -0.261119095352E+03   -0.22657E-07   -0.54799E-08   133   0.855E-04    0.489E-04
RMM:   5    -0.261119095359E+03   -0.73414E-08   -0.86399E-09    99   0.352E-04
 476 F= -.26111910E+03 E0= -.26111910E+03  d E =-.459735E-06
 curvature: -38.56 expect dE=-0.883E-05 dE for cont linesearch -0.219E-09
 trial: gam= 0.88377 g(F)=  0.229E-06 g(S)=  0.000E+00 ort =-0.557E-08 (trialstep = 0.265E+01)
 search vector abs. value=  0.449E-05
 bond charge predicted
       N       E                     dE             d eps       ncg     rms          rms(c)
DAV:   1    -0.261119095353E+03   -0.15862E-08   -0.33913E-04   160   0.663E-02    0.574E-03
RMM:   2    -0.261119095386E+03   -0.32749E-07   -0.50455E-06   160   0.842E-03    0.272E-03
RMM:   3    -0.261119095551E+03   -0.16517E-06   -0.11595E-06   168   0.383E-03    0.146E-03
RMM:   4    -0.261119095630E+03   -0.79290E-07   -0.24976E-07   175   0.177E-03    0.107E-03
RMM:   5    -0.261119095642E+03   -0.11358E-07   -0.33643E-08   117   0.683E-04    0.666E-04
RMM:   6    -0.261119095662E+03   -0.19903E-07   -0.12273E-08    99   0.378E-04    0.200E-04
RMM:   7    -0.261119095666E+03   -0.39545E-08   -0.30809E-09    99   0.206E-04
 477 F= -.26111910E+03 E0= -.26111910E+03  d E =-.306671E-06
 trial-energy change:   -0.000000  1 .order   -0.000000   -0.000001   -0.000000
 step:   2.6742(harm=  2.6742)  dis= 0.00016  next Energy=  -261.119096 (dE=-0.300E-06)
 bond charge predicted
       N       E                     dE             d eps       ncg     rms          rms(c)
DAV:   1    -0.261119095669E+03   -0.75743E-08   -0.33250E-08   192   0.656E-04    0.110E-04
RMM:   2    -0.261119095672E+03   -0.30122E-08   -0.90957E-10    79   0.121E-04
 478 F= -.26111910E+03 E0= -.26111910E+03  d E =-.313303E-06
 curvature: -26.82 expect dE=-0.419E-05 dE for cont linesearch -0.467E-10
 trial: gam= 0.67641 g(F)=  0.156E-06 g(S)=  0.000E+00 ort =-0.280E-08 (trialstep = 0.265E+01)
 search vector abs. value=  0.221E-05
 bond charge predicted
       N       E                     dE             d eps       ncg     rms          rms(c)
DAV:   1    -0.261119095753E+03   -0.84114E-07   -0.16482E-04   176   0.461E-02    0.479E-03
RMM:   2    -0.261119095780E+03   -0.26601E-07   -0.26329E-06   160   0.605E-03    0.203E-03
RMM:   3    -0.261119095873E+03   -0.93522E-07   -0.60399E-07   169   0.276E-03    0.108E-03
RMM:   4    -0.261119095917E+03   -0.43277E-07   -0.12445E-07   163   0.126E-03    0.797E-04
RMM:   5    -0.261119095922E+03   -0.55697E-08   -0.16805E-08   100   0.495E-04
 479 F= -.26111910E+03 E0= -.26111910E+03  d E =-.250071E-06
 trial-energy change:   -0.000000  1 .order   -0.000000   -0.000000   -0.000000
 step:   3.3979(harm=  3.3979)  dis= 0.00014  next Energy=  -261.119096 (dE=-0.262E-06)
 reached required accuracy - stopping structural energy minimisation
 writing wavefunctions
 PROFILE, used timers:     448
