molecule                                
            1
    22.000000    0.000000    0.000000
     0.000000   22.000000    0.000000
     0.000000    0.000000   22.000000
   C    S    H 
    20     5    12
Direct configuration=     1
   0.49485134  0.48658396  0.26282685
   0.55520520  0.48051627  0.26354908
   0.50632943  0.42987545  0.35140286
   0.46617284  0.45707118  0.31432695
   0.49444256  0.39626145  0.40896622
   0.44681711  0.35923245  0.42125699
   0.51681156  0.36962791  0.50896168
   0.53525693  0.40170700  0.46107549
   0.39714629  0.33876722  0.37976008
   0.33785775  0.33237068  0.39446649
   0.35894220  0.30069436  0.28865976
   0.40881666  0.31984304  0.31707131
   0.30762643  0.34362263  0.45440590
   0.29314970  0.39799063  0.47926272
   0.26479129  0.31164568  0.54572395
   0.29022634  0.29324158  0.49392663
   0.30116457  0.46004818  0.45428927
   0.30560020  0.51189418  0.48647936
   0.31112843  0.56528309  0.44841758
   0.31022629  0.55142750  0.38933199
   0.58075184  0.43938227  0.32549222
   0.45000707  0.33072354  0.49522809
   0.29496234  0.30374763  0.33422613
   0.25947198  0.38984263  0.55062231
   0.30293757  0.47425105  0.37629386
   0.46958416  0.51069973  0.22830294
   0.58695534  0.49820782  0.23062517
   0.41770952  0.45761763  0.32191508
   0.53890647  0.36666354  0.55264395
   0.57569356  0.42954654  0.45999404
   0.35592443  0.28432095  0.24252726
   0.45361757  0.32109204  0.29707349
   0.24852875  0.28320799  0.58222813
   0.29803888  0.24632726  0.48166495
   0.30519961  0.51396864  0.53553509
   0.31546452  0.61074055  0.46647808
   0.31366611  0.58269218  0.35169481
Direct configuration=     2
   0.49417760  0.48628292  0.26339359
   0.55574324  0.48033061  0.26378033
   0.50663542  0.42940798  0.35211079
   0.46630489  0.45749054  0.31356338
   0.49525810  0.39679150  0.40888895
   0.44603357  0.35875031  0.42118287
   0.51642339  0.36923794  0.50922431
   0.53494643  0.40180999  0.46023013
   0.39801580  0.33880946  0.37945917
   0.33708537  0.33239758  0.39491118
   0.35835891  0.30058957  0.28865223
   0.40899435  0.32018120  0.31789370
   0.30773835  0.34272071  0.45416155
   0.29307588  0.39888732  0.47930964
   0.26461928  0.31206042  0.54609128
   0.29054029  0.29366156  0.49321898
   0.30107861  0.45917573  0.45414914
   0.30566428  0.51270120  0.48620980
   0.31105763  0.56478893  0.44916666
   0.31019132  0.55104622  0.38889381
   0.58037672  0.43949828  0.32535149
   0.45021190  0.33101975  0.49499603
   0.29537972  0.30386009  0.33430289
   0.25962410  0.38958698  0.55029743
   0.30298194  0.47444394  0.37659614
   0.46951476  0.51079235  0.22817158
   0.58711313  0.49824936  0.23054109
   0.41748232  0.45759796  0.32199864
   0.53894405  0.36662322  0.55281450
   0.57584551  0.42966893  0.45999174
   0.35586617  0.28425288  0.24237193
   0.45379202  0.32110936  0.29699544
   0.24846418  0.28315562  0.58238508
   0.29806977  0.24615664  0.48161995
   0.30520900  0.51393704  0.53573362
   0.31548382  0.61090663  0.46652118
   0.31368104  0.58275575  0.35152655
Direct configuration=     3
   0.49403339  0.48621849  0.26351489
   0.55585841  0.48029087  0.26382983
   0.50670091  0.42930792  0.35226232
   0.46633316  0.45758030  0.31339995
   0.49543266  0.39690495  0.40887241
   0.44586586  0.35864710  0.42116700
   0.51634031  0.36915448  0.50928052
   0.53487997  0.40183203  0.46004919
   0.39820191  0.33881851  0.37939476
   0.33692005  0.33240334  0.39500637
   0.35823406  0.30056714  0.28865062
   0.40903239  0.32025358  0.31806972
   0.30776231  0.34252765  0.45410925
   0.29306008  0.39907925  0.47931969
   0.26458246  0.31214919  0.54616990
   0.29060749  0.29375146  0.49306752
   0.30106021  0.45898899  0.45411914
   0.30567799  0.51287394  0.48615210
   0.31104247  0.56468315  0.44932699
   0.31018383  0.55096460  0.38880002
   0.58029643  0.43952311  0.32532137
   0.45025574  0.33108315  0.49494636
   0.29546905  0.30388417  0.33431933
   0.25965667  0.38953225  0.55022789
   0.30299144  0.47448523  0.37666084
   0.46949990  0.51081217  0.22814347
   0.58714690  0.49825825  0.23052309
   0.41743369  0.45759375  0.32201653
   0.53895210  0.36661459  0.55285101
   0.57587803  0.42969513  0.45999125
   0.35585369  0.28423831  0.24233868
   0.45382936  0.32111307  0.29697874
   0.24845036  0.28314441  0.58241868
   0.29807638  0.24612012  0.48161032
   0.30521101  0.51393027  0.53577611
   0.31548795  0.61094217  0.46653040
   0.31368424  0.58276935  0.35149054
Direct configuration=     4
   0.49402366  0.48615199  0.26360267
   0.55583483  0.48017633  0.26403018
   0.50675726  0.42932943  0.35224490
   0.46636533  0.45749016  0.31345565
   0.49543529  0.39682410  0.40895206
   0.44594998  0.35872046  0.42111473
   0.51616978  0.36909804  0.50907410
   0.53476536  0.40177465  0.45988239
   0.39808125  0.33876530  0.37942609
   0.33697664  0.33240169  0.39496517
   0.35816975  0.30065782  0.28889768
   0.40899292  0.32035483  0.31828687
   0.30765482  0.34251267  0.45417964
   0.29309622  0.39894563  0.47923500
   0.26465222  0.31235164  0.54604851
   0.29064453  0.29391856  0.49294342
   0.30106113  0.45905520  0.45411050
   0.30565446  0.51282694  0.48611291
   0.31101072  0.56458883  0.44937203
   0.31015921  0.55073587  0.38887150
   0.58002759  0.43957838  0.32526877
   0.45031610  0.33129308  0.49471943
   0.29575033  0.30398119  0.33444522
   0.25978443  0.38943345  0.54994926
   0.30303107  0.47453751  0.37687718
   0.46947550  0.51082989  0.22812600
   0.58730931  0.49828753  0.23045776
   0.41737096  0.45758796  0.32204779
   0.53895884  0.36656823  0.55299926
   0.57591383  0.42974837  0.45997521
   0.35578293  0.28418189  0.24221743
   0.45389392  0.32113408  0.29697027
   0.24839472  0.28312417  0.58256538
   0.29809556  0.24607788  0.48158000
   0.30522732  0.51392044  0.53582051
   0.31549440  0.61097280  0.46655105
   0.31370069  0.58279948  0.35133026
Direct configuration=     5
   0.49401675  0.48610481  0.26366493
   0.55581811  0.48009507  0.26417231
   0.50679723  0.42934469  0.35223255
   0.46638816  0.45742621  0.31349517
   0.49543715  0.39676674  0.40900857
   0.44600965  0.35877250  0.42107765
   0.51604881  0.36905801  0.50892765
   0.53468405  0.40173394  0.45976407
   0.39799564  0.33872755  0.37944831
   0.33701679  0.33240052  0.39493594
   0.35812413  0.30072215  0.28907294
   0.40896492  0.32042667  0.31844093
   0.30757857  0.34250205  0.45422957
   0.29312187  0.39885083  0.47917492
   0.26470171  0.31249526  0.54596240
   0.29067080  0.29403711  0.49285538
   0.30106178  0.45910218  0.45410437
   0.30563776  0.51279359  0.48608510
   0.31098819  0.56452191  0.44940397
   0.31014175  0.55057361  0.38892221
   0.57983688  0.43961758  0.32523146
   0.45035892  0.33144200  0.49455845
   0.29594987  0.30405002  0.33453453
   0.25987507  0.38936335  0.54975158
   0.30305919  0.47457460  0.37703067
   0.46945819  0.51084245  0.22811360
   0.58742452  0.49830830  0.23041142
   0.41732646  0.45758385  0.32206997
   0.53896363  0.36653533  0.55310444
   0.57593924  0.42978613  0.45996384
   0.35573273  0.28414187  0.24213142
   0.45393971  0.32114898  0.29696427
   0.24835525  0.28310982  0.58266945
   0.29810917  0.24604791  0.48155849
   0.30523888  0.51391346  0.53585200
   0.31549898  0.61099453  0.46656569
   0.31371235  0.58282086  0.35121655
Direct configuration=     6
   0.49399284  0.48608307  0.26367343
   0.55585961  0.48010352  0.26416954
   0.50678816  0.42933537  0.35226412
   0.46629456  0.45730076  0.31361425
   0.49540102  0.39672616  0.40888389
   0.44603400  0.35883933  0.42096433
   0.51604562  0.36903367  0.50890141
   0.53474942  0.40173933  0.45969231
   0.39796371  0.33874504  0.37961766
   0.33703760  0.33241852  0.39501488
   0.35815556  0.30076547  0.28909801
   0.40903018  0.32050548  0.31852452
   0.30755738  0.34255193  0.45408739
   0.29317061  0.39880027  0.47903715
   0.26472904  0.31250565  0.54595794
   0.29067919  0.29398129  0.49279083
   0.30106153  0.45908894  0.45413652
   0.30560161  0.51269444  0.48621566
   0.31095837  0.56453716  0.44941155
   0.31013844  0.55054629  0.38888713
   0.57963364  0.43961186  0.32526747
   0.45031460  0.33162212  0.49429917
   0.29614084  0.30415073  0.33472202
   0.26000311  0.38936775  0.54945737
   0.30310221  0.47452594  0.37722184
   0.46946506  0.51082011  0.22815688
   0.58751414  0.49826230  0.23048046
   0.41730731  0.45756828  0.32210645
   0.53885087  0.36648098  0.55308413
   0.57588133  0.42978908  0.45992906
   0.35564395  0.28415041  0.24220552
   0.45391790  0.32118521  0.29702472
   0.24835770  0.28322777  0.58269746
   0.29812239  0.24611012  0.48153350
   0.30526115  0.51389521  0.53585177
   0.31549872  0.61095741  0.46656934
   0.31371946  0.58270947  0.35115709
Direct configuration=     7
   0.49395276  0.48604662  0.26368767
   0.55592918  0.48011769  0.26416489
   0.50677297  0.42931975  0.35231704
   0.46613767  0.45709048  0.31381385
   0.49534046  0.39665814  0.40867491
   0.44607482  0.35895135  0.42077438
   0.51604027  0.36899286  0.50885743
   0.53485900  0.40174837  0.45957204
   0.39791018  0.33877436  0.37990152
   0.33707248  0.33244868  0.39514719
   0.35820826  0.30083810  0.28914003
   0.40913956  0.32063758  0.31866463
   0.30752187  0.34263555  0.45384907
   0.29325232  0.39871552  0.47880621
   0.26477486  0.31252307  0.54595047
   0.29069324  0.29388774  0.49268263
   0.30106111  0.45906676  0.45419041
   0.30554102  0.51252825  0.48643450
   0.31090839  0.56456271  0.44942424
   0.31013288  0.55050049  0.38882833
   0.57929299  0.43960227  0.32532784
   0.45024031  0.33192402  0.49386459
   0.29646094  0.30431954  0.33503628
   0.26021774  0.38937512  0.54896422
   0.30317432  0.47444437  0.37754228
   0.46947657  0.51078267  0.22822942
   0.58766435  0.49818520  0.23059619
   0.41727522  0.45754220  0.32216761
   0.53866187  0.36638989  0.55305009
   0.57578426  0.42979403  0.45987077
   0.35549514  0.28416473  0.24232972
   0.45388134  0.32124594  0.29712605
   0.24836182  0.28342548  0.58274440
   0.29814456  0.24621439  0.48149160
   0.30529847  0.51386462  0.53585139
   0.31549827  0.61089519  0.46657546
   0.31373138  0.58252277  0.35105743
Direct configuration=     8
   0.49392667  0.48594166  0.26380922
   0.55584148  0.48015775  0.26413435
   0.50665724  0.42929332  0.35234118
   0.46609870  0.45705237  0.31376401
   0.49546615  0.39668178  0.40855771
   0.44604815  0.35903575  0.42064055
   0.51610131  0.36904419  0.50873302
   0.53483948  0.40165198  0.45951372
   0.39800073  0.33881898  0.37996053
   0.33714848  0.33248879  0.39526638
   0.35837518  0.30093738  0.28920293
   0.40911125  0.32071151  0.31876835
   0.30748401  0.34253308  0.45371950
   0.29331595  0.39873305  0.47859482
   0.26486244  0.31246447  0.54584162
   0.29066280  0.29394600  0.49265152
   0.30107553  0.45901552  0.45428980
   0.30550861  0.51256469  0.48644080
   0.31084933  0.56443174  0.44944758
   0.31013510  0.55051911  0.38888569
   0.57919504  0.43955355  0.32541892
   0.45011965  0.33209469  0.49362984
   0.29656335  0.30440417  0.33522400
   0.26033408  0.38944402  0.54868122
   0.30323595  0.47433245  0.37767726
   0.46947104  0.51075108  0.22829161
   0.58778704  0.49810152  0.23073038
   0.41718004  0.45750181  0.32224911
   0.53846263  0.36630204  0.55298686
   0.57574850  0.42983401  0.45980161
   0.35536259  0.28419912  0.24249680
   0.45388588  0.32131724  0.29723238
   0.24838111  0.28364230  0.58275891
   0.29818205  0.24622869  0.48142242
   0.30532923  0.51382816  0.53596687
   0.31549590  0.61085886  0.46659077
   0.31374021  0.58231960  0.35098451
Direct configuration=     9
   0.49390362  0.48584892  0.26391662
   0.55576398  0.48019314  0.26410736
   0.50655498  0.42926997  0.35236251
   0.46606427  0.45701869  0.31371997
   0.49557720  0.39670268  0.40845416
   0.44602457  0.35911033  0.42052230
   0.51615524  0.36908955  0.50862309
   0.53482223  0.40156680  0.45946219
   0.39808074  0.33885841  0.38001268
   0.33721564  0.33252423  0.39537171
   0.35852267  0.30102512  0.28925851
   0.40908622  0.32077683  0.31886000
   0.30745055  0.34244254  0.45360501
   0.29337218  0.39874855  0.47840804
   0.26493983  0.31241270  0.54574544
   0.29063590  0.29399748  0.49262402
   0.30108827  0.45897025  0.45437762
   0.30547997  0.51259690  0.48644637
   0.31079714  0.56431602  0.44946821
   0.31013706  0.55053556  0.38893637
   0.57910848  0.43951051  0.32549940
   0.45001303  0.33224550  0.49342241
   0.29665384  0.30447894  0.33538986
   0.26043688  0.38950490  0.54843114
   0.30329041  0.47423356  0.37779653
   0.46946615  0.51072317  0.22834657
   0.58789545  0.49802759  0.23084896
   0.41709595  0.45746612  0.32232112
   0.53828658  0.36622443  0.55293098
   0.57571690  0.42986934  0.45974050
   0.35524548  0.28422951  0.24264444
   0.45388989  0.32138025  0.29732634
   0.24839815  0.28383389  0.58277173
   0.29821518  0.24624133  0.48136130
   0.30535641  0.51379594  0.53606891
   0.31549380  0.61082677  0.46660431
   0.31374802  0.58214006  0.35092008
Direct configuration=    10
   0.49381461  0.48582328  0.26391032
   0.55568247  0.48015903  0.26418798
   0.50646247  0.42928203  0.35228409
   0.46594560  0.45701045  0.31365375
   0.49566094  0.39667522  0.40844693
   0.44610825  0.35927378  0.42044789
   0.51609237  0.36907046  0.50849241
   0.53489943  0.40155514  0.45931441
   0.39814404  0.33892492  0.37992311
   0.33740238  0.33252966  0.39538518
   0.35855701  0.30112649  0.28938721
   0.40917550  0.32086140  0.31893129
   0.30740026  0.34237009  0.45361194
   0.29341464  0.39866899  0.47825772
   0.26500385  0.31249335  0.54566079
   0.29064709  0.29396064  0.49249032
   0.30114782  0.45901066  0.45441214
   0.30544731  0.51261311  0.48651591
   0.31074897  0.56431445  0.44953404
   0.31013077  0.55043260  0.38900811
   0.57913682  0.43947191  0.32556125
   0.44988520  0.33235712  0.49335509
   0.29666096  0.30450305  0.33545739
   0.26048482  0.38957125  0.54829761
   0.30336530  0.47414700  0.37780671
   0.46946285  0.51065736  0.22845936
   0.58801084  0.49794010  0.23099998
   0.41700314  0.45741459  0.32240410
   0.53807044  0.36613114  0.55286543
   0.57567588  0.42990392  0.45965036
   0.35512119  0.28427535  0.24282771
   0.45390614  0.32147835  0.29747279
   0.24842672  0.28407297  0.58278417
   0.29826048  0.24624952  0.48127172
   0.30538774  0.51376131  0.53618641
   0.31547787  0.61072563  0.46661174
   0.31376068  0.58192014  0.35083942
Direct configuration=    11
   0.49369567  0.48578901  0.26390191
   0.55557354  0.48011345  0.26429573
   0.50633885  0.42929815  0.35217928
   0.46578702  0.45699945  0.31356525
   0.49577283  0.39663853  0.40843728
   0.44622007  0.35949221  0.42034844
   0.51600835  0.36904494  0.50831776
   0.53500259  0.40153955  0.45911691
   0.39822865  0.33901381  0.37980342
   0.33765194  0.33253691  0.39540317
   0.35860289  0.30126196  0.28955921
   0.40929481  0.32097442  0.31902656
   0.30733304  0.34227326  0.45362120
   0.29347139  0.39856266  0.47805684
   0.26508941  0.31260113  0.54554766
   0.29066205  0.29391142  0.49231164
   0.30122740  0.45906468  0.45445828
   0.30540366  0.51263477  0.48660885
   0.31068460  0.56431235  0.44962202
   0.31012236  0.55029499  0.38910398
   0.57917469  0.43942033  0.32564391
   0.44971436  0.33250630  0.49326512
   0.29667048  0.30453526  0.33554764
   0.26054889  0.38965993  0.54811916
   0.30346539  0.47403133  0.37782031
   0.46945845  0.51056941  0.22861008
   0.58816504  0.49782318  0.23120180
   0.41687911  0.45734574  0.32251501
   0.53778159  0.36600648  0.55277784
   0.57562107  0.42995013  0.45952988
   0.35495510  0.28433662  0.24307263
   0.45392786  0.32160945  0.29766850
   0.24846489  0.28439247  0.58280080
   0.29832103  0.24626047  0.48115200
   0.30542962  0.51371502  0.53634343
   0.31545658  0.61059047  0.46662166
   0.31377759  0.58162623  0.35073162
Direct configuration=    12
   0.49366090  0.48575901  0.26388037
   0.55557520  0.48004472  0.26441074
   0.50631724  0.42928915  0.35209224
   0.46561144  0.45695910  0.31356035
   0.49583160  0.39669799  0.40828439
   0.44621688  0.35959768  0.42032395
   0.51588872  0.36900893  0.50814625
   0.53512164  0.40149122  0.45905610
   0.39840772  0.33920467  0.37979292
   0.33772294  0.33250198  0.39541829
   0.35854596  0.30136158  0.28970749
   0.40936746  0.32104023  0.31897401
   0.30744923  0.34224013  0.45346419
   0.29346795  0.39857832  0.47802848
   0.26514905  0.31275944  0.54544123
   0.29062768  0.29381196  0.49226287
   0.30132789  0.45904374  0.45442005
   0.30537428  0.51260444  0.48679375
   0.31062560  0.56428259  0.44964553
   0.31011671  0.55014879  0.38912856
   0.57916515  0.43940852  0.32566957
   0.44958196  0.33263333  0.49325834
   0.29669786  0.30454521  0.33558593
   0.26056602  0.38970798  0.54804742
   0.30357151  0.47397720  0.37780298
   0.46938186  0.51054599  0.22866223
   0.58823557  0.49769833  0.23143485
   0.41676047  0.45728018  0.32260175
   0.53751524  0.36589799  0.55269290
   0.57563524  0.43002281  0.45940234
   0.35482677  0.28439980  0.24328733
   0.45405054  0.32175142  0.29782319
   0.24850998  0.28469050  0.58280981
   0.29838792  0.24621692  0.48101406
   0.30546391  0.51367486  0.53644016
   0.31543288  0.61053478  0.46666281
   0.31379388  0.58132497  0.35067935
Direct configuration=    13
   0.49363545  0.48573704  0.26386460
   0.55557641  0.47999439  0.26449496
   0.50630141  0.42928255  0.35202849
   0.46548286  0.45692955  0.31355675
   0.49587464  0.39674153  0.40817243
   0.44621455  0.35967492  0.42030601
   0.51580111  0.36898255  0.50802065
   0.53520883  0.40145582  0.45901157
   0.39853886  0.33934444  0.37978523
   0.33777494  0.33247640  0.39542936
   0.35850427  0.30143453  0.28981608
   0.40942066  0.32108842  0.31893552
   0.30753432  0.34221587  0.45334920
   0.29346542  0.39858979  0.47800772
   0.26519272  0.31287537  0.54536329
   0.29060250  0.29373912  0.49222716
   0.30140147  0.45902840  0.45439204
   0.30535277  0.51258223  0.48692916
   0.31058239  0.56426079  0.44966274
   0.31011257  0.55004173  0.38914657
   0.57915816  0.43939986  0.32568836
   0.44948500  0.33272636  0.49325338
   0.29671791  0.30455250  0.33561397
   0.26057857  0.38974317  0.54799488
   0.30364923  0.47393756  0.37779029
   0.46932577  0.51052883  0.22870041
   0.58828723  0.49760691  0.23160552
   0.41667360  0.45723218  0.32266527
   0.53732019  0.36581854  0.55263070
   0.57564562  0.43007604  0.45930893
   0.35473280  0.28444608  0.24344457
   0.45414039  0.32185540  0.29793647
   0.24854299  0.28490876  0.58281641
   0.29843690  0.24618503  0.48091305
   0.30548902  0.51364546  0.53651100
   0.31541552  0.61049400  0.46669295
   0.31380580  0.58110434  0.35064107
Direct configuration=    14
   0.49365588  0.48566224  0.26392504
   0.55558253  0.47994361  0.26456554
   0.50631889  0.42927175  0.35194667
   0.46548890  0.45688447  0.31355891
   0.49588073  0.39678370  0.40810664
   0.44621994  0.35975649  0.42034541
   0.51575444  0.36895985  0.50797024
   0.53522840  0.40138672  0.45893520
   0.39850796  0.33948698  0.37976511
   0.33787035  0.33245391  0.39533610
   0.35846132  0.30148562  0.28985080
   0.40940608  0.32117391  0.31890148
   0.30763543  0.34225876  0.45336021
   0.29349034  0.39859298  0.47800721
   0.26519697  0.31293651  0.54532305
   0.29059892  0.29379014  0.49217538
   0.30149641  0.45900008  0.45440996
   0.30535282  0.51249907  0.48688083
   0.31052720  0.56412072  0.44968425
   0.31011435  0.54995274  0.38915473
   0.57908770  0.43939906  0.32569928
   0.44936347  0.33283779  0.49325678
   0.29674962  0.30455477  0.33567305
   0.26056931  0.38979619  0.54798623
   0.30375510  0.47389200  0.37778963
   0.46919951  0.51057431  0.22864083
   0.58831183  0.49750343  0.23181607
   0.41652847  0.45717284  0.32272875
   0.53708125  0.36573445  0.55253231
   0.57573832  0.43015906  0.45920288
   0.35463817  0.28449444  0.24358502
   0.45435903  0.32198900  0.29799767
   0.24859622  0.28518054  0.58280667
   0.29849404  0.24607644  0.48078601
   0.30551088  0.51360806  0.53663509
   0.31538676  0.61052296  0.46674768
   0.31382532  0.58084087  0.35062006
Direct configuration=    15
   0.49365956  0.48564877  0.26393593
   0.55558363  0.47993445  0.26457826
   0.50632203  0.42926980  0.35193193
   0.46548999  0.45687635  0.31355930
   0.49588182  0.39679130  0.40809479
   0.44622091  0.35977119  0.42035252
   0.51574603  0.36895575  0.50796115
   0.53523193  0.40137427  0.45892143
   0.39850240  0.33951267  0.37976149
   0.33788755  0.33244985  0.39531930
   0.35845358  0.30149483  0.28985706
   0.40940346  0.32118932  0.31889535
   0.30765365  0.34226649  0.45336219
   0.29349483  0.39859355  0.47800711
   0.26519773  0.31294753  0.54531580
   0.29059827  0.29379934  0.49216605
   0.30151351  0.45899497  0.45441319
   0.30535283  0.51248409  0.48687212
   0.31051726  0.56409547  0.44968813
   0.31011467  0.54993671  0.38915620
   0.57907500  0.43939891  0.32570125
   0.44934157  0.33285787  0.49325739
   0.29675534  0.30455518  0.33568369
   0.26056764  0.38980574  0.54798467
   0.30377418  0.47388379  0.37778951
   0.46917676  0.51058250  0.22863009
   0.58831626  0.49748478  0.23185401
   0.41650232  0.45716215  0.32274019
   0.53703819  0.36571929  0.55251458
   0.57575503  0.43017402  0.45918377
   0.35462111  0.28450315  0.24361033
   0.45439843  0.32201308  0.29800870
   0.24860581  0.28522952  0.58280491
   0.29850434  0.24605688  0.48076311
   0.30551482  0.51360132  0.53665746
   0.31538158  0.61052818  0.46675755
   0.31382883  0.58079339  0.35061628
Direct configuration=    16
   0.49361382  0.48567449  0.26388313
   0.55555947  0.47990985  0.26460487
   0.50634812  0.42922348  0.35195253
   0.46547496  0.45685070  0.31357230
   0.49584942  0.39678116  0.40813840
   0.44618065  0.35981349  0.42036023
   0.51573612  0.36896068  0.50793644
   0.53525854  0.40138023  0.45887320
   0.39843736  0.33956406  0.37971188
   0.33786772  0.33248449  0.39532064
   0.35847357  0.30151364  0.28982940
   0.40944427  0.32127881  0.31886299
   0.30771550  0.34232316  0.45342879
   0.29354562  0.39859954  0.47802862
   0.26518319  0.31296219  0.54528343
   0.29064265  0.29381343  0.49211847
   0.30156351  0.45891331  0.45441591
   0.30537695  0.51240884  0.48687617
   0.31050540  0.56411095  0.44969752
   0.31011865  0.54988515  0.38918301
   0.57904249  0.43938225  0.32572348
   0.44927299  0.33292756  0.49326245
   0.29675164  0.30454054  0.33572712
   0.26055288  0.38984227  0.54800392
   0.30384450  0.47382752  0.37780530
   0.46913473  0.51058579  0.22861656
   0.58834029  0.49745441  0.23193559
   0.41649016  0.45712486  0.32274703
   0.53693685  0.36567887  0.55250897
   0.57579629  0.43017360  0.45913014
   0.35457539  0.28450424  0.24359554
   0.45449891  0.32209457  0.29802202
   0.24862316  0.28534521  0.58283532
   0.29851530  0.24605493  0.48071438
   0.30551858  0.51357043  0.53664555
   0.31534357  0.61049391  0.46676821
   0.31384962  0.58068385  0.35058728
Direct configuration=    17
   0.49355803  0.48570587  0.26381873
   0.55553001  0.47987984  0.26463733
   0.50637994  0.42916700  0.35197766
   0.46545663  0.45681942  0.31358817
   0.49580990  0.39676878  0.40819158
   0.44613156  0.35986507  0.42036963
   0.51572403  0.36896668  0.50790630
   0.53529100  0.40138751  0.45881437
   0.39835805  0.33962674  0.37965138
   0.33784353  0.33252674  0.39532228
   0.35849795  0.30153658  0.28979566
   0.40949405  0.32138794  0.31882352
   0.30779092  0.34239227  0.45351002
   0.29360755  0.39860684  0.47805485
   0.26516546  0.31298008  0.54524396
   0.29069676  0.29383062  0.49206044
   0.30162448  0.45881372  0.45441923
   0.30540636  0.51231707  0.48688110
   0.31049093  0.56412982  0.44970898
   0.31012351  0.54982227  0.38921571
   0.57900284  0.43936193  0.32575059
   0.44918936  0.33301254  0.49326863
   0.29674713  0.30452270  0.33578007
   0.26053489  0.38988681  0.54802739
   0.30393027  0.47375889  0.37782455
   0.46908347  0.51058979  0.22860005
   0.58836959  0.49741738  0.23203509
   0.41647533  0.45707939  0.32275538
   0.53681327  0.36562957  0.55250214
   0.57584661  0.43017308  0.45906474
   0.35451963  0.28450556  0.24357751
   0.45462145  0.32219394  0.29803826
   0.24864433  0.28548629  0.58287239
   0.29852867  0.24605256  0.48065495
   0.30552317  0.51353277  0.53663103
   0.31529721  0.61045212  0.46678122
   0.31387497  0.58055026  0.35055191
Direct configuration=    18
   0.49353033  0.48569887  0.26382126
   0.55548552  0.47987049  0.26464516
   0.50635880  0.42913638  0.35199367
   0.46546650  0.45680579  0.31358423
   0.49579167  0.39677136  0.40820658
   0.44605579  0.35988521  0.42036252
   0.51571513  0.36898208  0.50786997
   0.53531012  0.40138530  0.45881836
   0.39834650  0.33967894  0.37962868
   0.33780307  0.33257276  0.39534570
   0.35852947  0.30156028  0.28978678
   0.40951478  0.32145471  0.31877528
   0.30785359  0.34240964  0.45352961
   0.29364627  0.39861263  0.47811008
   0.26516215  0.31299619  0.54519573
   0.29072245  0.29383520  0.49206761
   0.30167102  0.45878427  0.45441670
   0.30543350  0.51228807  0.48686747
   0.31048094  0.56408807  0.44972229
   0.31013008  0.54978794  0.38923327
   0.57899085  0.43934464  0.32576803
   0.44914232  0.33307339  0.49327663
   0.29675013  0.30450231  0.33579363
   0.26052832  0.38990236  0.54803673
   0.30399013  0.47370581  0.37783848
   0.46904795  0.51059759  0.22857822
   0.58839455  0.49740212  0.23208704
   0.41648314  0.45704667  0.32275586
   0.53674963  0.36560081  0.55252037
   0.57587220  0.43015523  0.45902060
   0.35448647  0.28449874  0.24353851
   0.45467559  0.32226404  0.29805071
   0.24865067  0.28555600  0.58291097
   0.29853323  0.24607596  0.48062073
   0.30552400  0.51350016  0.53660776
   0.31526209  0.61043519  0.46679316
   0.31389392  0.58047128  0.35052838
Direct configuration=    19
   0.49347393  0.48568462  0.26382642
   0.55539496  0.47985144  0.26466110
   0.50631577  0.42907405  0.35202626
   0.46548657  0.45677806  0.31357622
   0.49575456  0.39677661  0.40823710
   0.44590154  0.35992620  0.42034805
   0.51569702  0.36901341  0.50779603
   0.53534905  0.40138080  0.45882647
   0.39832299  0.33978519  0.37958247
   0.33772073  0.33266643  0.39539335
   0.35859364  0.30160852  0.28976871
   0.40955696  0.32159061  0.31867711
   0.30798116  0.34244498  0.45356951
   0.29372509  0.39862442  0.47822251
   0.26515542  0.31302900  0.54509756
   0.29077474  0.29384452  0.49208220
   0.30176576  0.45872435  0.45441154
   0.30548876  0.51222905  0.48683972
   0.31046059  0.56400307  0.44974937
   0.31014344  0.54971805  0.38926902
   0.57896643  0.43930944  0.32580354
   0.44904658  0.33319724  0.49329292
   0.29675623  0.30446081  0.33582122
   0.26051496  0.38993399  0.54805576
   0.30411198  0.47359775  0.37786683
   0.46897563  0.51061346  0.22853379
   0.58844535  0.49737106  0.23219279
   0.41649903  0.45698008  0.32275684
   0.53662009  0.36554228  0.55255748
   0.57592428  0.43011889  0.45893075
   0.35441896  0.28448484  0.24345913
   0.45478579  0.32240671  0.29807605
   0.24866358  0.28569789  0.58298949
   0.29854252  0.24612360  0.48055109
   0.30552568  0.51343379  0.53656040
   0.31519059  0.61040071  0.46681748
   0.31393250  0.58031051  0.35048048
Direct configuration=    20
   0.49344000  0.48566574  0.26384714
   0.55537786  0.47984999  0.26465508
   0.50626419  0.42906604  0.35202191
   0.46548183  0.45675720  0.31357945
   0.49571833  0.39677148  0.40823550
   0.44585708  0.35997976  0.42035165
   0.51568193  0.36901289  0.50782190
   0.53534816  0.40137936  0.45882225
   0.39828838  0.33983914  0.37955906
   0.33774224  0.33272418  0.39536316
   0.35860265  0.30162304  0.28973053
   0.40956243  0.32166663  0.31865195
   0.30801832  0.34243848  0.45360652
   0.29378066  0.39862263  0.47828895
   0.26512699  0.31303632  0.54511463
   0.29080591  0.29385373  0.49209846
   0.30182415  0.45873378  0.45441835
   0.30552005  0.51221869  0.48682680
   0.31045691  0.56394989  0.44976056
   0.31015623  0.54967371  0.38925580
   0.57895566  0.43929402  0.32580973
   0.44899879  0.33326486  0.49330703
   0.29678220  0.30443212  0.33580049
   0.26051895  0.38992923  0.54805731
   0.30418245  0.47354331  0.37787541
   0.46894779  0.51061053  0.22852296
   0.58846081  0.49736135  0.23224060
   0.41652860  0.45694243  0.32275068
   0.53656153  0.36552076  0.55257140
   0.57594753  0.43007969  0.45888450
   0.35439524  0.28448612  0.24343254
   0.45480610  0.32249091  0.29808771
   0.24867356  0.28575999  0.58301171
   0.29854538  0.24616377  0.48052154
   0.30552505  0.51338845  0.53653108
   0.31514400  0.61037142  0.46682836
   0.31395491  0.58023481  0.35046407
Direct configuration=    21
   0.49338328  0.48563416  0.26388177
   0.55534927  0.47984755  0.26464501
   0.50617796  0.42905265  0.35201464
   0.46547389  0.45672233  0.31358485
   0.49565775  0.39676290  0.40823282
   0.44578274  0.36006932  0.42035767
   0.51565669  0.36901200  0.50786517
   0.53534668  0.40137694  0.45881520
   0.39823051  0.33992935  0.37951993
   0.33777822  0.33282072  0.39531269
   0.35861773  0.30164733  0.28966670
   0.40957157  0.32179373  0.31860988
   0.30808045  0.34242761  0.45366840
   0.29387357  0.39861963  0.47840004
   0.26507946  0.31304857  0.54514318
   0.29085802  0.29386913  0.49212565
   0.30192177  0.45874955  0.45442975
   0.30557236  0.51220138  0.48680521
   0.31045075  0.56386097  0.44977926
   0.31017760  0.54959958  0.38923370
   0.57893766  0.43926823  0.32582006
   0.44891889  0.33337790  0.49333062
   0.29682563  0.30438416  0.33576583
   0.26052561  0.38992128  0.54805990
   0.30430028  0.47345230  0.37788974
   0.46890125  0.51060563  0.22850486
   0.58848666  0.49734512  0.23232053
   0.41657803  0.45687950  0.32274037